 written on 19Jul2020 at 16:10:25 
   134.22225299999999       -1.0362302350000000E-014   0.0000000000000000     
   67.111126499999997        116.23988079999999        0.0000000000000000     
   0.0000000000000000        0.0000000000000000        137.57225299999999     
          12
         147
    1    1    2    1    1    1    1    1    2    1    1    1    1    1    1
    1    1    1    1    1    1    1    1    1    1    1    1    1    1    1
    1    1    1    1    1    1    1    1    1    1    1    1    1    1    1
    1    1    1    1    1    1    1    1    1    1    1    1    1    1    1
    1    1    1    1    1    1    1    2    1    1    1    1    1    1    1
    1    1    1    1    2    1    1    1    1    1    1    1    1    1    1
    1    1    1    1    1    1    1    1    1    1    1    1    1    1    1
    1    1    1    1    1    1    1    1    1    1    1    1    1    1    1
    1    1    1    1    1    1    1    1    1    1    1    1    1    1    1
    1    1    1    2    1    1    1    1    1    2    1    1

   -7    3    0
    1    1   -0.46407631E-06 -0.22012572E-07
    2    1    0.51182197E-05  0.51231355E-07
    3    1    0.35863825E-05 -0.93714751E-07
    4    1    0.43535608E-05 -0.12451202E-07
    5    1   -0.23951556E-05 -0.16507903E-06
    6    1    0.82826585E-05 -0.12001530E-06
    7    1    0.72079365E-06 -0.29538205E-06
    8    1   -0.27971929E-05  0.96373800E-08
    9    1    0.44292604E-06  0.44226755E-06
   10    1   -0.73271602E-05 -0.28962522E-06
   11    1    0.89230785E-05  0.68467189E-07
   12    1    0.28989319E-05 -0.75542437E-07
    1    2   -0.49905886E-05 -0.68185823E-07
    2    2   -0.40602101E-06  0.52238148E-07
    3    2    0.46106551E-05 -0.92024953E-07
    4    2   -0.32927680E-05  0.78113308E-07
    5    2   -0.81086293E-05 -0.84281762E-07
    6    2   -0.23475201E-05  0.72346617E-07
    7    2   -0.23791468E-05 -0.12527232E-06
    8    2   -0.79856456E-06  0.40484491E-06
    9    2    0.68453829E-05  0.79985565E-07
   10    2    0.39130953E-06  0.91798491E-07
   11    2   -0.30180309E-05  0.38333471E-07
   12    2    0.92749326E-05  0.68389999E-07
    1    3    0.96558299E-06 -0.18433030E-06
    2    3    0.38612774E-05 -0.19540260E-07
    3    3   -0.27765318E-05 -0.87879165E-08
    4    3   -0.39872470E-05 -0.25592914E-06
    5    3    0.18455245E-05  0.12645755E-06
    6    3    0.24463697E-05  0.25796180E-06
    7    3    0.38081211E-06 -0.89878790E-07
    8    3    0.28565809E-05 -0.10319245E-06
    9    3    0.11407070E-05 -0.36631940E-06
   10    3   -0.12584618E-05 -0.27625519E-06
   11    3   -0.32073007E-05  0.11045393E-06
   12    3   -0.15423045E-05  0.22006381E-06
    1    4    0.40080969E-05  0.27968931E-08
    2    4   -0.10412272E-05  0.99760127E-07
    3    4    0.42665878E-05  0.11504888E-07
    4    4   -0.29391389E-05 -0.29245834E-07
    5    4    0.22475641E-05  0.21955875E-06
    6    4   -0.18691339E-05 -0.21018298E-06
    7    4   -0.29350316E-05  0.12696974E-06
    8    4    0.48000886E-07  0.37062318E-07
    9    4   -0.91049206E-06 -0.35753171E-06
   10    4   -0.84613469E-06  0.19194761E-06
   11    4   -0.18539415E-05 -0.15378077E-06
   12    4    0.31330189E-05 -0.15219182E-06
    1    5   -0.48203072E-05  0.61513311E-07
    2    5    0.95726567E-06 -0.10387942E-06
    3    5    0.73402025E-05 -0.93475648E-07
    4    5    0.14810107E-05  0.22437361E-07
    5    5    0.22044801E-05 -0.13705529E-06
    6    5   -0.30681169E-05  0.29740569E-06
    7    5    0.56259216E-05 -0.23525561E-07
    8    5   -0.34570309E-05  0.31998651E-07
    9    5   -0.48826279E-05 -0.34108584E-07
   10    5    0.54862377E-05 -0.18654934E-06
   11    5    0.41882695E-06 -0.20094038E-06
   12    5   -0.26357843E-05 -0.42419371E-06
    1    6   -0.11826362E-05 -0.44860676E-08
    2    6   -0.47452848E-05 -0.77107408E-07
    3    6    0.15939038E-05 -0.25198645E-06
    4    6   -0.76290602E-05  0.26401527E-06
    5    6    0.33209042E-05 -0.90040408E-07
    6    6    0.19786699E-05  0.20174394E-08
    7    6   -0.31038246E-05 -0.15135748E-06
    8    6   -0.56291549E-05 -0.76954580E-07
    9    6   -0.47833890E-05 -0.47644170E-07
   10    6   -0.49104343E-05 -0.21698527E-06
   11    6    0.25584568E-05  0.39776018E-06
   12    6    0.27467642E-06 -0.65983186E-06
    1    7    0.55334583E-07 -0.16650206E-06
    2    7   -0.14890455E-05  0.39123692E-07
    3    7    0.69611620E-05 -0.34967464E-07
    4    7    0.20141083E-06 -0.52694948E-07
    5    7    0.18677991E-05 -0.44486633E-07
    6    7    0.10409446E-05 -0.26303374E-06
    7    7   -0.39480703E-06  0.12547018E-06
    8    7   -0.43472747E-05  0.21189960E-06
    9    7    0.21019230E-05 -0.55510668E-07
   10    7   -0.49918898E-05 -0.23164020E-06
   11    7   -0.56980059E-05 -0.40933925E-08
   12    7    0.11933702E-05  0.14323005E-06
    1    8   -0.85915704E-06  0.22528912E-07
    2    8   -0.14382557E-07  0.12912102E-06
    3    8   -0.14834128E-06 -0.13692082E-06
    4    8    0.70952619E-05 -0.30061295E-06
    5    8    0.84291127E-06 -0.23480401E-07
    6    8   -0.20023969E-05 -0.13927490E-06
    7    8    0.43013007E-05  0.10176056E-06
    8    8   -0.37696071E-06 -0.10662156E-06
    9    8   -0.53095415E-05 -0.26052386E-06
   10    8   -0.16517415E-05  0.17936668E-07
   11    8    0.13262146E-05 -0.26785755E-06
   12    8    0.56721841E-05  0.64962141E-08
    1    9   -0.19280603E-05  0.36583105E-07
    2    9    0.34103988E-05  0.17208490E-06
    3    9   -0.59357814E-05  0.20325581E-06
    4    9    0.45930308E-05  0.20361495E-06
    5    9   -0.14622107E-05 -0.38490630E-07
    6    9   -0.29427673E-05  0.23943004E-06
    7    9   -0.30455623E-05 -0.78562698E-07
    8    9    0.17142322E-05 -0.11422432E-08
    9    9    0.27519293E-05 -0.18551581E-07
   10    9    0.39639095E-05 -0.45307745E-07
   11    9    0.34170522E-05  0.25929160E-06
   12    9    0.60403103E-05  0.34040183E-06
    1   10   -0.35756247E-05 -0.20659801E-06
    2   10   -0.17660341E-05  0.14409280E-06
    3   10    0.48641306E-05  0.29600509E-06
    4   10    0.57377906E-05 -0.24372840E-06
    5   10    0.25002568E-05 -0.14676835E-06
    6   10   -0.16048610E-05 -0.85403039E-07
    7   10    0.15912287E-05 -0.20235371E-07
    8   10    0.29679688E-05  0.20346175E-07
    9   10   -0.38247951E-05  0.18853663E-06
   10   10    0.25025016E-05 -0.11689750E-07
   11   10   -0.60482133E-05 -0.38300075E-06
   12   10    0.33302736E-05  0.27781779E-06
    1   11   -0.18109642E-05 -0.14051058E-06
    2   11    0.36886508E-05  0.20501471E-06
    3   11    0.22622444E-05 -0.18566477E-07
    4   11   -0.19196032E-05 -0.26447710E-07
    5   11    0.47767915E-05  0.21254471E-06
    6   11    0.44575469E-05 -0.18564259E-06
    7   11   -0.48246886E-05  0.13209693E-06
    8   11    0.37140198E-05 -0.72569350E-07
    9   11   -0.61783403E-05  0.11206468E-07
   10   11   -0.25037788E-05  0.29646170E-07
   11   11   -0.16694671E-05 -0.11185034E-06
   12   11   -0.32392913E-05 -0.15492478E-06
    1   12   -0.38017109E-05 -0.27498128E-06
    2   12   -0.22078155E-05 -0.83346528E-07
    3   12   -0.19376367E-05 -0.21295000E-07
    4   12   -0.19767558E-05 -0.20331439E-06
    5   12   -0.46920208E-05  0.24034869E-06
    6   12    0.50503340E-05  0.19661869E-06
    7   12    0.40171101E-05 -0.37557128E-08
    8   12    0.46905071E-05 -0.12333588E-06
    9   12    0.26380224E-05 -0.71484358E-07
   10   12   -0.57820290E-05 -0.18957814E-07
   11   12    0.33798802E-05  0.22181388E-06
   12   12   -0.15954406E-05 -0.21156093E-07

   -7    4    0
    1    1   -0.28732925E-05  0.54995349E-07
    2    1    0.41555112E-05 -0.11327212E-06
    3    1   -0.29505606E-05 -0.40965133E-07
    4    1    0.29380335E-05 -0.20161266E-06
    5    1   -0.20781033E-06 -0.54402644E-07
    6    1    0.74546691E-05  0.79262974E-07
    7    1   -0.10918025E-05 -0.28137416E-06
    8    1    0.67599582E-05 -0.76983979E-07
    9    1    0.56902928E-05  0.11251673E-06
   10    1   -0.39413936E-05 -0.21865162E-06
   11    1    0.57234772E-05 -0.22820109E-07
   12    1   -0.59741150E-06  0.12417050E-06
    1    2   -0.41982941E-05  0.69739148E-07
    2    2   -0.28019978E-05  0.32497649E-07
    3    2    0.28188410E-05 -0.39344853E-07
    4    2    0.28343856E-05  0.22431123E-06
    5    2   -0.77660149E-05 -0.10593255E-06
    6    2   -0.11974698E-06 -0.49604348E-07
    7    2    0.64793246E-05  0.19643265E-07
    8    2    0.11712231E-05  0.30649152E-06
    9    2    0.33868870E-05  0.44577441E-06
   10    2    0.58878767E-05  0.19954736E-06
   11    2    0.55081487E-06  0.24367898E-07
   12    2    0.54887437E-05 -0.16021321E-06
    1    3   -0.51268900E-05 -0.20801839E-06
    2    3    0.19610641E-05  0.15209819E-08
    3    3   -0.37690723E-06 -0.61291551E-07
    4    3   -0.49372256E-05  0.19429839E-06
    5    3   -0.47654067E-05  0.73097022E-07
    6    3    0.11009719E-05  0.28254027E-06
    7    3   -0.63360545E-06 -0.26888537E-06
    8    3    0.21501051E-05  0.84655633E-08
    9    3    0.61288402E-05 -0.64249347E-07
   10    3   -0.64518747E-05 -0.74565860E-07
   11    3   -0.72110246E-05  0.21962344E-06
   12    3    0.24939114E-05  0.85124129E-07
    1    4    0.20808091E-05  0.36327776E-07
    2    4    0.54145703E-05  0.15540992E-06
    3    4    0.52214978E-05  0.71442541E-07
    4    4   -0.43494519E-06 -0.25545986E-07
    5    4    0.11934054E-05  0.46596743E-07
    6    4    0.45889205E-05 -0.26207882E-06
    7    4   -0.20056814E-05  0.98807165E-07
    8    4   -0.49026488E-06 -0.37028720E-08
    9    4   -0.65624216E-05 -0.10255774E-07
   10    4   -0.69860383E-05  0.10686947E-06
   11    4    0.21898620E-05  0.22732966E-06
   12    4    0.73990681E-05 -0.12566794E-06
    1    5   -0.64699605E-05 -0.13625325E-08
    2    5    0.53576299E-05  0.62021755E-07
    3    5    0.33935561E-05 -0.12975852E-06
    4    5   -0.31397996E-06  0.25004484E-07
    5    5   -0.16940156E-05  0.13423097E-06
    6    5   -0.31998935E-05  0.16916079E-06
    7    5   -0.31260522E-05  0.56449260E-07
    8    5   -0.86802776E-05 -0.31038780E-06
    9    5   -0.81343134E-06 -0.96575672E-07
   10    5    0.44041738E-05  0.13991893E-06
   11    5   -0.77549117E-06 -0.35922492E-06
   12    5   -0.19577861E-05 -0.37863063E-06
    1    6   -0.49569423E-05 -0.14183810E-06
    2    6   -0.65353132E-05  0.80132099E-07
    3    6   -0.79857766E-07  0.35487383E-07
    4    6   -0.31561827E-05  0.12500531E-06
    5    6    0.32821473E-05 -0.30275290E-06
    6    6   -0.16479016E-05 -0.63701082E-07
    7    6   -0.83331144E-05  0.25199370E-07
    8    6    0.27328927E-05  0.12099001E-06
    9    6   -0.48174771E-05 -0.96339685E-09
   10    6   -0.46673167E-06 -0.22325489E-06
   11    6    0.17971195E-05  0.11822558E-06
   12    6   -0.50811986E-06 -0.83089577E-07
    1    7   -0.14661924E-05 -0.19740836E-06
    2    7    0.66422284E-05  0.15650654E-07
    3    7    0.20135692E-05 -0.44045590E-07
    4    7   -0.73143550E-06  0.13134621E-06
    5    7   -0.45169449E-05  0.32913018E-06
    6    7   -0.30517215E-05  0.24999076E-06
    7    7    0.26195106E-05 -0.14150864E-06
    8    7   -0.39627596E-05 -0.15998190E-06
    9    7    0.59249189E-05 -0.14279702E-06
   10    7    0.11443551E-05  0.85039536E-07
   11    7   -0.34428451E-05  0.21551723E-06
   12    7   -0.24307701E-05 -0.11954139E-06
    1    8    0.60375953E-05 -0.10367020E-06
    2    8    0.14138664E-05  0.44910658E-07
    3    8    0.62610230E-06 -0.61243829E-07
    4    8    0.16008466E-05 -0.99711608E-07
    5    8   -0.34569744E-05  0.65493712E-07
    6    8    0.43619738E-05 -0.18355436E-06
    7    8    0.38825448E-05  0.10766435E-07
    8    8    0.26082173E-05  0.13989701E-06
    9    8    0.16196006E-05 -0.29724009E-06
   10    8   -0.61150001E-05  0.19008292E-06
   11    8   -0.25839201E-05 -0.23196838E-07
   12    8    0.32529056E-05  0.16670321E-06
    1    9    0.45884584E-05  0.15745526E-06
    2    9   -0.98178219E-06  0.21455765E-06
    3    9   -0.37518212E-05  0.12116848E-07
    4    9    0.34743325E-05  0.74815195E-07
    5    9    0.51027901E-05 -0.84312919E-07
    6    9   -0.33874674E-05  0.15768577E-06
    7    9    0.16903147E-05  0.93600394E-07
    8    9    0.73093591E-05  0.82788522E-07
    9    9   -0.29622070E-06 -0.59191752E-07
   10    9    0.44546085E-05  0.18762923E-07
   11    9    0.39006642E-05  0.21081290E-06
   12    9    0.38870607E-05  0.17046095E-06
    1   10    0.84396867E-06 -0.16192150E-06
    2   10    0.47457442E-05  0.16095653E-06
    3   10    0.33493558E-05 -0.85080408E-07
    4   10    0.37825301E-05  0.70390613E-07
    5   10    0.37135959E-05 -0.84688895E-07
    6   10    0.48923174E-05 -0.73208138E-07
    7   10    0.75871145E-05  0.12380916E-06
    8   10   -0.14427696E-05 -0.50381730E-07
    9   10   -0.42734125E-05 -0.16509802E-06
   10   10   -0.51981414E-06  0.14751532E-08
   11   10   -0.38078809E-05 -0.22333062E-06
   12   10    0.40366155E-05  0.27129195E-06
    1   11   -0.10102113E-05  0.26027316E-07
    2   11    0.69265830E-05  0.45130883E-06
    3   11   -0.19195641E-05 -0.37408608E-07
    4   11    0.26634903E-05  0.37547535E-07
    5   11    0.37359849E-05 -0.56708736E-07
    6   11    0.34021502E-05  0.13250493E-08
    7   11    0.17277877E-06  0.11862383E-07
    8   11   -0.21966994E-05  0.10973322E-06
    9   11   -0.90512292E-05 -0.94794604E-07
   10   11   -0.11485667E-05 -0.82246450E-08
   11   11    0.20281704E-05  0.91803292E-07
   12   11   -0.31920375E-05 -0.26091402E-06
    1   12   -0.67823606E-05 -0.44439308E-06
    2   12   -0.91523795E-06 -0.24666059E-07
    3   12    0.29107745E-05 -0.26276258E-07
    4   12    0.20733332E-05  0.61248926E-07
    5   12   -0.35469106E-05  0.26258652E-07
    6   12    0.36909643E-05  0.97310319E-07
    7   12   -0.24539984E-05 -0.14619263E-07
    8   12   -0.23823479E-06 -0.10318852E-06
    9   12    0.64062497E-06  0.10638205E-06
   10   12   -0.92025717E-05 -0.29491289E-07
   11   12    0.31012563E-05  0.17600237E-06
   12   12    0.22227397E-05  0.17947654E-07

   -6    0    0
    1    1    0.22108228E-06  0.58537354E-12
    2    1    0.49790450E-08 -0.47857382E-06
    3    1   -0.47198332E-05  0.11719435E-06
    4    1    0.26897393E-05 -0.48946588E-07
    5    1    0.31367484E-05  0.13746871E-06
    6    1   -0.35446134E-07  0.59257351E-07
    7    1    0.11911190E-06 -0.23076141E-06
    8    1   -0.51727461E-06  0.86329662E-07
    9    1   -0.50029166E-05 -0.19968002E-06
   10    1   -0.17460314E-05 -0.79688825E-09
   11    1    0.58268661E-05 -0.11499170E-06
   12    1    0.94383935E-06  0.16939429E-06
    1    2    0.49778969E-08  0.47857352E-06
    2    2    0.30692018E-06  0.22294969E-14
    3    2    0.25449512E-05 -0.14311342E-07
    4    2    0.44258816E-05  0.13487278E-07
    5    2    0.14519046E-06 -0.37204929E-07
    6    2    0.32041653E-05  0.11762294E-06
    7    2   -0.55805479E-07  0.80725874E-07
    8    2   -0.80776672E-08 -0.17675224E-06
    9    2    0.25090797E-05  0.43578888E-07
   10    2   -0.53439973E-05 -0.57546203E-07
   11    2   -0.94707904E-06 -0.21487636E-06
   12    2    0.57197656E-05 -0.22194066E-06
    1    3   -0.47198392E-05 -0.11719486E-06
    2    3    0.25449883E-05  0.14310466E-07
    3    3   -0.31907960E-05  0.25972136E-12
    4    3   -0.19874990E-06  0.14103764E-06
    5    3    0.39259906E-05  0.40979113E-07
    6    3    0.16876544E-05 -0.38919109E-06
    7    3    0.58257838E-05  0.47949047E-07
    8    3    0.46991179E-06  0.89975386E-08
    9    3   -0.52329925E-06  0.36021083E-07
   10    3   -0.16199168E-06  0.69151488E-07
   11    3    0.87460857E-06  0.89009453E-09
   12    3   -0.47368373E-05 -0.21670611E-06
    1    4    0.26897759E-05  0.48946453E-07
    2    4    0.44258878E-05 -0.13487311E-07
    3    4   -0.19876440E-06 -0.14103738E-06
    4    4   -0.28810659E-05  0.73342661E-13
    5    4    0.18602037E-05 -0.67155875E-07
    6    4   -0.41131318E-05  0.12018337E-06
    7    4   -0.59279941E-06 -0.30753470E-06
    8    4    0.59830697E-05 -0.25065802E-06
    9    4   -0.19459003E-06  0.13890395E-06
   10    4    0.11734151E-05 -0.13680923E-06
   11    4   -0.42481668E-05 -0.32269514E-07
   12    4   -0.10803700E-05 -0.19748184E-06
    1    5    0.31367625E-05 -0.13746983E-06
    2    5    0.14524810E-06  0.37205715E-07
    3    5    0.39261752E-05 -0.40979389E-07
    4    5    0.18602228E-05  0.67155624E-07
    5    5    0.39353072E-05  0.42380610E-12
    6    5   -0.27722816E-06 -0.19389851E-07
    7    5    0.38205270E-05  0.10627278E-06
    8    5   -0.40086284E-05 -0.62591607E-07
    9    5    0.43703741E-05  0.78892283E-07
   10    5   -0.96518098E-06  0.19611277E-06
   11    5   -0.19152833E-07 -0.58510232E-07
   12    5   -0.80952393E-06  0.11328331E-06
    1    6   -0.35501429E-07 -0.59257984E-07
    2    6    0.32041758E-05 -0.11762051E-06
    3    6    0.16876746E-05  0.38919026E-06
    4    6   -0.41133173E-05 -0.12018436E-06
    5    6   -0.27724046E-06  0.19389675E-07
    6    6    0.41497216E-05 -0.84507549E-13
    7    6   -0.43926905E-05 -0.10765844E-06
    8    6   -0.35277589E-05 -0.37457695E-07
    9    6    0.99271579E-06  0.37161206E-06
   10    6    0.48686994E-05  0.14051904E-06
   11    6    0.87679786E-06  0.37893964E-07
   12    6   -0.33506391E-06  0.14159789E-06
    1    7    0.11910859E-06  0.23076149E-06
    2    7   -0.55777916E-07 -0.80725924E-07
    3    7    0.58258004E-05 -0.47949474E-07
    4    7   -0.59278908E-06  0.30753482E-06
    5    7    0.38203993E-05 -0.10627299E-06
    6    7   -0.43925593E-05  0.10765691E-06
    7    7    0.83408393E-07 -0.17044088E-12
    8    7   -0.81823809E-07 -0.47054972E-06
    9    7    0.33158797E-06 -0.19171053E-06
   10    7    0.30480490E-05 -0.25403482E-06
   11    7    0.34309006E-05  0.65596636E-07
   12    7    0.39270887E-05 -0.18697259E-06
    1    8   -0.51724682E-06 -0.86329611E-07
    2    8   -0.80737052E-08  0.17675214E-06
    3    8    0.46990027E-06 -0.89976507E-08
    4    8    0.59830851E-05  0.25065806E-06
    5    8   -0.40084956E-05  0.62590003E-07
    6    8   -0.35276297E-05  0.37457036E-07
    7    8   -0.81824796E-07  0.47054914E-06
    8    8    0.50010452E-07  0.53797437E-12
    9    8    0.32887426E-05  0.23352021E-07
   10    8   -0.33246872E-06 -0.16707962E-06
   11    8    0.40974877E-05  0.95592555E-07
   12    8   -0.33701878E-05 -0.80482448E-07
    1    9   -0.50027499E-05  0.19967902E-06
    2    9    0.25090009E-05 -0.43578858E-07
    3    9   -0.52348855E-06 -0.36022429E-07
    4    9   -0.19437551E-06 -0.13890594E-06
    5    9    0.43683827E-05 -0.78885284E-07
    6    9    0.99231528E-06 -0.37160696E-06
    7    9    0.33153199E-06  0.19171120E-06
    8    9    0.32887350E-05 -0.23351463E-07
    9    9    0.37070157E-05  0.12221060E-12
   10    9   -0.14110102E-06  0.17052195E-06
   11    9    0.21780103E-06 -0.35922591E-06
   12    9    0.43510037E-05  0.75804481E-08
    1   10   -0.17459524E-05  0.79672759E-09
    2   10   -0.53438308E-05  0.57545209E-07
    3   10   -0.16178096E-06 -0.69153326E-07
    4   10    0.11736052E-05  0.13681146E-06
    5   10   -0.96477278E-06 -0.19610827E-06
    6   10    0.48667093E-05 -0.14050620E-06
    7   10    0.30480401E-05  0.25403642E-06
    8   10   -0.33241087E-06  0.16707999E-06
    9   10   -0.14108888E-06 -0.17052214E-06
   10   10    0.43017707E-05 -0.17126508E-12
   11   10   -0.42731145E-05  0.29751461E-06
   12   10   -0.80958377E-07 -0.22383317E-06
    1   11    0.58268823E-05  0.11499150E-06
    2   11   -0.94706982E-06  0.21487670E-06
    3   11    0.87459477E-06 -0.88908234E-09
    4   11   -0.42481032E-05  0.32271027E-07
    5   11   -0.18938660E-07  0.58507695E-07
    6   11    0.87698695E-06 -0.37894186E-07
    7   11    0.34309067E-05 -0.65596649E-07
    8   11    0.40974508E-05 -0.95592897E-07
    9   11    0.21774508E-06  0.35922531E-06
   10   11   -0.42732922E-05 -0.29751449E-06
   11   11   -0.28640652E-05  0.17876052E-12
   12   11   -0.55253971E-07 -0.50443860E-07
    1   12    0.94382961E-06 -0.16939462E-06
    2   12    0.57197829E-05  0.22194046E-06
    3   12   -0.47367734E-05  0.21670710E-06
    4   12   -0.10803573E-05  0.19748280E-06
    5   12   -0.80970830E-06 -0.11328714E-06
    6   12   -0.33485053E-06 -0.14160112E-06
    7   12    0.39270519E-05  0.18697181E-06
    8   12   -0.33701947E-05  0.80482462E-07
    9   12    0.43511810E-05 -0.75807980E-08
   10   12   -0.81014509E-07  0.22383235E-06
   11   12   -0.55268781E-07  0.50444124E-07
   12   12   -0.32024581E-05  0.35879660E-12

   -6    1    0
    1    1    0.84432224E-06 -0.47736014E-07
    2    1   -0.76635478E-05 -0.98485467E-07
    3    1   -0.42082706E-05  0.20637187E-06
    4    1    0.30086044E-05  0.15434657E-06
    5    1    0.42354169E-05 -0.54916949E-07
    6    1    0.63081887E-06 -0.13632844E-06
    7    1    0.65514110E-06  0.19884216E-06
    8    1   -0.62095316E-05  0.88491227E-07
    9    1   -0.41651984E-05  0.13629694E-06
   10    1   -0.14355760E-05 -0.79407292E-07
   11    1    0.51841712E-05 -0.12977761E-06
   12    1   -0.15803667E-05  0.32840876E-07
    1    2    0.80733731E-05  0.22003298E-06
    2    2    0.87331427E-06  0.27315688E-07
    3    2    0.33160424E-05  0.13989388E-06
    4    2    0.44609497E-05 -0.15161760E-06
    5    2   -0.26815924E-06  0.32975045E-07
    6    2    0.41362920E-05  0.33253423E-07
    7    2   -0.58129791E-05 -0.12761922E-07
    8    2   -0.80968062E-06 -0.78016801E-07
    9    2    0.88028051E-06 -0.59396769E-07
   10    2   -0.40165140E-05 -0.69045590E-07
   11    2    0.15163657E-05  0.16861879E-07
   12    2    0.56108914E-05 -0.73403210E-07
    1    3    0.40085194E-05  0.10302140E-06
    2    3   -0.87273757E-07  0.77192292E-07
    3    3   -0.37056441E-05 -0.36703047E-07
    4    3    0.27064648E-05 -0.16638529E-06
    5    3    0.62532033E-05 -0.13049069E-06
    6    3    0.97222949E-05 -0.93335355E-07
    7    3    0.82630530E-05  0.99422824E-07
    8    3    0.30116374E-05 -0.55803470E-07
    9    3   -0.17762147E-06 -0.78685825E-07
   10    3   -0.84170462E-06  0.97760913E-07
   11    3    0.37167420E-05 -0.16471219E-06
   12    3   -0.27087209E-05 -0.12669729E-06
    1    4   -0.64816680E-07 -0.26444961E-07
    2    4   -0.41103890E-05  0.97378494E-07
    3    4   -0.24615188E-05  0.41169091E-08
    4    4   -0.38970008E-05  0.89287503E-07
    5    4    0.96545532E-05 -0.22054577E-06
    6    4   -0.61667459E-05  0.17397394E-07
    7    4   -0.33611109E-05  0.12341558E-06
    8    4    0.76037689E-05  0.91132990E-07
    9    4    0.50406757E-07  0.40521017E-08
   10    4    0.25120809E-06 -0.17208586E-06
   11    4   -0.31945969E-05 -0.23312999E-06
   12    4   -0.39992949E-05  0.13934627E-06
    1    5   -0.23558490E-05 -0.45444062E-07
    2    5   -0.20829966E-05 -0.64294556E-07
    3    5    0.18342314E-05  0.88352435E-07
    4    5   -0.53974073E-05  0.37480503E-06
    5    5    0.28632203E-05 -0.92980647E-07
    6    5   -0.42749646E-05  0.45714897E-07
    7    5    0.46277848E-05  0.15737783E-06
    8    5    0.56748019E-06  0.34478446E-06
    9    5    0.73181738E-05  0.10744085E-06
   10    5    0.91517756E-05  0.18949845E-07
   11    5   -0.42325309E-05  0.36185682E-06
   12    5    0.41992431E-05 -0.39265483E-07
    1    6    0.16450283E-05 -0.14076906E-06
    2    6   -0.18948332E-05 -0.25890759E-06
    3    6   -0.52719993E-05  0.90320334E-07
    4    6   -0.19873482E-05  0.20609799E-06
    5    6    0.46412472E-05  0.20822552E-06
    6    6    0.28100006E-05 -0.78576613E-07
    7    6    0.95696095E-06  0.25362600E-06
    8    6   -0.49491470E-05 -0.41730727E-06
    9    6   -0.80627812E-05 -0.33919060E-06
   10    6    0.70771940E-05  0.98519788E-07
   11    6   -0.37544138E-05 -0.81956611E-07
   12    6   -0.41463122E-05 -0.25797043E-06
    1    7    0.31014868E-06  0.33578146E-06
    2    7    0.10824453E-05  0.18688096E-07
    3    7    0.13837109E-05  0.31206363E-06
    4    7    0.16842532E-05  0.11682223E-06
    5    7    0.49205892E-05 -0.12378767E-06
    6    7   -0.19381807E-05  0.13166918E-06
    7    7   -0.82697132E-06  0.19661197E-06
    8    7    0.71758199E-05 -0.60569864E-07
    9    7    0.73093795E-05  0.29597772E-06
   10    7   -0.10323897E-05 -0.14126911E-06
   11    7    0.34233105E-05  0.51423248E-07
   12    7    0.20791343E-05  0.38646844E-06
    1    8    0.15838760E-05  0.70496639E-07
    2    8   -0.29163751E-06 -0.25502341E-06
    3    8   -0.15620100E-05 -0.44213856E-06
    4    8    0.17721452E-05 -0.19061730E-07
    5    8   -0.20138123E-05  0.32933691E-06
    6    8   -0.49462189E-05 -0.72912399E-07
    7    8   -0.74629856E-05  0.28154354E-06
    8    8   -0.89994767E-06 -0.12883330E-06
    9    8   -0.14393408E-05 -0.26076559E-06
   10    8   -0.67382573E-05 -0.11031154E-06
   11    8    0.21473736E-05 -0.14522374E-06
   12    8   -0.32359756E-05 -0.27046612E-07
    1    9   -0.53822867E-05 -0.83969203E-07
    2    9    0.28908949E-05 -0.73394832E-08
    3    9   -0.26748553E-05 -0.34739051E-07
    4    9    0.23827991E-05 -0.13741948E-06
    5    9   -0.48517170E-05 -0.15519659E-06
    6    9    0.12212398E-05 -0.20416241E-07
    7    9   -0.62492259E-05 -0.11820703E-06
    8    9    0.12083186E-05  0.27773637E-07
    9    9    0.42973511E-05 -0.47256411E-07
   10    9   -0.12496140E-05  0.51568918E-07
   11    9    0.27483534E-06  0.31799721E-08
   12    9   -0.59768396E-06 -0.15462139E-06
    1   10   -0.32869191E-05  0.19438294E-07
    2   10   -0.52369746E-05  0.85396243E-07
    3   10    0.27671710E-05  0.62708839E-07
    4   10    0.21864293E-05 -0.24423132E-07
    5   10   -0.19089952E-05  0.16828410E-06
    6   10   -0.49780967E-05 -0.18446847E-06
    7   10    0.10664517E-05 -0.37535121E-07
    8   10    0.60955775E-05 -0.71984346E-07
    9   10    0.13362075E-05  0.14604776E-06
   10   10    0.40125568E-05  0.76163755E-07
   11   10    0.42322668E-06  0.12206525E-06
   12   10    0.20938029E-06 -0.89773613E-07
    1   11    0.30557200E-05 -0.55652902E-08
    2   11   -0.31551174E-05  0.56727655E-07
    3   11    0.48351436E-06 -0.19798233E-06
    4   11   -0.74837143E-05 -0.27535539E-07
    5   11    0.47062723E-05  0.51002501E-07
    6   11    0.51915079E-05  0.17129223E-07
    7   11   -0.29125521E-05  0.72503227E-07
    8   11    0.42611237E-05 -0.20434947E-07
    9   11   -0.20990971E-06  0.31624473E-06
   10   11   -0.61338170E-05  0.87594628E-07
   11   11   -0.26565150E-05 -0.17210522E-06
   12   11   -0.42708900E-05  0.58307031E-07
    1   12    0.30921572E-05 -0.35998906E-07
    2   12    0.28858496E-05 -0.12342897E-06
    3   12   -0.75854148E-05 -0.98623832E-07
    4   12   -0.15494134E-06 -0.27935917E-07
    5   12   -0.54979264E-05  0.13805712E-06
    6   12    0.49331260E-05  0.45567656E-08
    7   12    0.46411843E-05  0.20555937E-06
    8   12    0.27090405E-05  0.71347444E-07
    9   12    0.62118913E-05  0.17411395E-07
   10   12    0.16672763E-06  0.27679982E-06
   11   12    0.42887311E-05 -0.84010954E-07
   12   12   -0.25402620E-05 -0.13361772E-06

   -6    2    0
    1    1    0.11400896E-05  0.26936341E-06
    2    1   -0.37175496E-05  0.66041079E-07
    3    1    0.38654901E-05 -0.13053520E-06
    4    1    0.20662800E-05 -0.18696380E-06
    5    1    0.27414426E-06  0.41042434E-07
    6    1    0.49396231E-05 -0.22294270E-07
    7    1    0.15023527E-05 -0.31554909E-07
    8    1   -0.88463169E-05 -0.10120110E-06
    9    1   -0.51632456E-05  0.48307376E-07
   10    1   -0.92849045E-06  0.17140817E-06
   11    1    0.30650402E-05 -0.17863651E-06
   12    1    0.18055668E-05 -0.34753620E-06
    1    2    0.36448234E-05 -0.17069423E-06
    2    2    0.10347742E-05  0.16213260E-07
    3    2    0.18151633E-05  0.16826972E-06
    4    2   -0.40348265E-05  0.19512281E-06
    5    2   -0.54368326E-05  0.10254292E-06
    6    2    0.40357896E-06 -0.16787539E-06
    7    2   -0.94341265E-05  0.23617382E-07
    8    2   -0.10538000E-05  0.56848800E-07
    9    2    0.58388797E-06  0.22483997E-06
   10    2   -0.46466106E-05  0.24193083E-06
   11    2   -0.16229881E-05  0.52724280E-06
   12    2    0.26126435E-05 -0.86470005E-07
    1    3    0.50603454E-05 -0.10880389E-06
    2    3   -0.28400525E-05 -0.38556784E-07
    3    3   -0.28595263E-05  0.74176437E-07
    4    3   -0.18636435E-05  0.16438858E-06
    5    3    0.30927772E-05 -0.10729480E-06
    6    3    0.83984300E-05  0.86749650E-07
    7    3    0.37593567E-05 -0.13587297E-06
    8    3    0.57989730E-05 -0.31697648E-06
    9    3    0.23407793E-05  0.93476368E-08
   10    3   -0.28316393E-05 -0.10333491E-06
   11    3    0.63038016E-05  0.23458820E-06
   12    3   -0.36086056E-05 -0.13032213E-06
    1    4   -0.29278020E-05  0.21423187E-06
    2    4   -0.47658944E-05  0.31280448E-06
    3    4    0.20967346E-05 -0.30438754E-07
    4    4   -0.25881323E-05 -0.51174365E-07
    5    4    0.83474644E-05  0.14660541E-06
    6    4   -0.34216511E-05  0.76628494E-07
    7    4   -0.53482900E-05  0.32515273E-06
    8    4    0.39932585E-05  0.17346810E-06
    9    4   -0.28989277E-05  0.92644898E-07
   10    4   -0.33790559E-05  0.73648088E-07
   11    4   -0.36948848E-05  0.81547901E-07
   12    4   -0.61244584E-05  0.68906334E-07
    1    5   -0.35737932E-05 -0.30327904E-06
    2    5    0.11309713E-05 -0.15270920E-07
    3    5    0.57136760E-05  0.13159965E-06
    4    5   -0.54800629E-05  0.20735822E-06
    5    5    0.79878274E-06  0.36399066E-07
    6    5   -0.88246894E-05 -0.14197828E-06
    7    5    0.75075148E-05  0.32437529E-06
    8    5    0.21216849E-05 -0.26083030E-08
    9    5   -0.32756126E-05  0.18554306E-06
   10    5    0.18616899E-04  0.40261403E-06
   11    5   -0.39171098E-05 -0.34967441E-06
   12    5    0.37069335E-05 -0.32382206E-06
    1    6   -0.61881450E-06  0.11449117E-06
    2    6   -0.37542099E-05  0.10184398E-06
    3    6   -0.53885307E-05  0.10623332E-06
    4    6   -0.55226128E-05 -0.31710623E-07
    5    6    0.88595683E-05 -0.14282886E-06
    6    6    0.11694247E-05 -0.13964784E-06
    7    6    0.22663331E-05  0.36799570E-06
    8    6   -0.77110376E-05 -0.95381234E-07
    9    6   -0.19501951E-04 -0.27150944E-06
   10    6   -0.32308746E-05  0.20239965E-07
   11    6   -0.38649768E-05  0.70378172E-07
   12    6   -0.33470853E-05  0.10604698E-06
    1    7    0.34311589E-06  0.45575315E-08
    2    7    0.87792422E-06  0.61725000E-07
    3    7   -0.12413161E-05  0.78796033E-07
    4    7    0.23223386E-05  0.15129161E-07
    5    7    0.21236143E-05  0.25425916E-06
    6    7    0.15190163E-05  0.19317183E-06
    7    7   -0.18214849E-05 -0.67056740E-07
    8    7    0.39614242E-05 -0.58330669E-07
    9    7    0.79314543E-05  0.37955775E-06
   10    7   -0.76542582E-05  0.25074175E-06
   11    7   -0.16288683E-05  0.32321399E-06
   12    7   -0.36161513E-06  0.54596814E-07
    1    8    0.74661550E-06  0.79814134E-07
    2    8   -0.43400032E-06 -0.13910529E-06
    3    8   -0.22046492E-05 -0.16127367E-06
    4    8   -0.16329241E-05 -0.24779599E-06
    5    8    0.11841831E-05 -0.11861939E-06
    6    8   -0.20963226E-05  0.14358036E-06
    7    8   -0.38953373E-05 -0.32505780E-06
    8    8   -0.19543790E-05  0.28741869E-06
    9    8   -0.71379676E-05 -0.12918660E-06
   10    8   -0.83496793E-05 -0.22677657E-06
   11    8   -0.72892230E-06  0.16701646E-06
   12    8    0.17067826E-05  0.21475648E-06
    1    9   -0.38550958E-05 -0.50289358E-07
    2    9    0.25524585E-05  0.11644440E-06
    3    9   -0.39859544E-05  0.91990601E-07
    4    9    0.50182953E-05  0.24590233E-06
    5    9   -0.75817398E-05 -0.14904457E-06
    6    9   -0.95848855E-06 -0.65583104E-08
    7    9   -0.68623653E-05 -0.98614651E-07
    8    9   -0.10147885E-05 -0.47673827E-07
    9    9    0.29629275E-05 -0.63997688E-07
   10    9    0.19348747E-05 -0.37898164E-07
   11    9    0.34271403E-05  0.10889048E-06
   12    9    0.30999640E-06 -0.56999614E-07
    1   10   -0.27236317E-05 -0.15002031E-06
    2   10   -0.39063581E-05 -0.16863204E-06
    3   10    0.47104969E-05  0.37969926E-07
    4   10    0.41992081E-05 -0.98108673E-07
    5   10    0.15879832E-05  0.11876186E-06
    6   10   -0.77880957E-05 -0.58286582E-07
    7   10   -0.65355812E-06 -0.88549998E-07
    8   10    0.68738683E-05  0.10099339E-06
    9   10   -0.20728602E-05 -0.31837284E-06
   10   10    0.28259028E-05 -0.57410631E-07
   11   10   -0.19751104E-06 -0.36335862E-06
   12   10    0.35489661E-05  0.24558713E-06
    1   11   -0.32545243E-05 -0.15031082E-06
    2   11    0.13073421E-05  0.58188083E-07
    3   11    0.12955147E-05 -0.11246841E-06
    4   11   -0.83219918E-05 -0.13141789E-08
    5   11    0.63257859E-05 -0.13751335E-06
    6   11    0.49304359E-05  0.70236715E-07
    7   11   -0.53733744E-05  0.50414384E-07
    8   11    0.31693266E-05  0.16578370E-06
    9   11   -0.47291595E-05  0.13343726E-06
   10   11   -0.19651502E-05  0.17529623E-06
   11   11   -0.44736881E-06  0.22151314E-08
   12   11   -0.88537688E-05  0.10829717E-07
    1   12   -0.14211494E-05 -0.58740727E-07
    2   12   -0.26984663E-05 -0.15263350E-06
    3   12   -0.79724729E-05 -0.20188763E-07
    4   12   -0.13575585E-05  0.95582783E-07
    5   12   -0.51222476E-05 -0.38907052E-07
    6   12    0.62294530E-05  0.32150478E-07
    7   12    0.29253738E-05  0.64553433E-07
    8   12    0.52058719E-05 -0.24926250E-06
    9   12    0.14892859E-05  0.91002806E-07
   10   12   -0.50767853E-05  0.13238487E-06
   11   12    0.85257670E-05 -0.13362662E-07
   12   12   -0.27549800E-06 -0.54643682E-07

   -6    3    0
    1    1   -0.34118685E-06 -0.11157532E-06
    2    1    0.36738555E-05 -0.72031648E-07
    3    1    0.46204622E-05 -0.28115251E-06
    4    1   -0.18854435E-05  0.21361930E-07
    5    1   -0.14322211E-05 -0.28208207E-06
    6    1    0.75207735E-05  0.12743127E-06
    7    1    0.27286488E-06 -0.53924036E-06
    8    1   -0.14773455E-05 -0.52851110E-07
    9    1   -0.13559263E-05 -0.23567282E-06
   10    1    0.27155248E-05 -0.79543292E-07
   11    1    0.36339027E-05  0.72072255E-08
   12    1    0.54417110E-05 -0.35431279E-06
    1    2   -0.40801707E-05 -0.33347078E-06
    2    2   -0.28091286E-06  0.96747440E-07
    3    2   -0.16413365E-05 -0.20186031E-06
    4    2   -0.46551369E-05  0.11245789E-06
    5    2   -0.73313061E-05  0.12598363E-06
    6    2   -0.17056097E-05 -0.98978492E-07
    7    2   -0.11812898E-05  0.15864902E-08
    8    2   -0.27043693E-06  0.20745316E-06
    9    2   -0.17758546E-05 -0.44539612E-07
   10    2   -0.14845714E-05  0.22663164E-06
   11    2   -0.54654011E-05  0.14775454E-06
   12    2    0.34632174E-05 -0.13643830E-06
    1    3   -0.32400601E-05 -0.15642122E-06
    2    3   -0.41077540E-05 -0.36969521E-07
    3    3   -0.45314049E-06 -0.89891406E-07
    4    3   -0.39900241E-05  0.23609679E-06
    5    3   -0.46477534E-05  0.17292200E-07
    6    3    0.30579178E-05 -0.36157279E-08
    7    3   -0.26779310E-05 -0.82489206E-07
    8    3    0.68635795E-05 -0.30798818E-06
    9    3    0.42699933E-05  0.16889775E-06
   10    3   -0.23607324E-05 -0.22153425E-07
   11    3    0.50391831E-05 -0.11164565E-06
   12    3   -0.48517041E-05 -0.67830179E-07
    1    4   -0.37419464E-05  0.19697200E-07
    2    4    0.29158356E-05  0.16733775E-06
    3    4    0.37686129E-05 -0.25693230E-06
    4    4   -0.13870275E-06 -0.64294706E-08
    5    4    0.34053091E-05  0.19231058E-06
    6    4    0.46133661E-05  0.57779907E-07
    7    4   -0.67244218E-05  0.36143325E-06
    8    4   -0.20709791E-05 -0.23794569E-06
    9    4   -0.27246328E-05  0.13713981E-06
   10    4   -0.37307657E-05  0.13176470E-06
   11    4   -0.42905497E-05  0.21784287E-06
   12    4   -0.48496510E-05 -0.35380701E-06
    1    5   -0.65956813E-06  0.14223016E-06
    2    5    0.36096992E-05 -0.60179767E-07
    3    5    0.62638722E-05 -0.12233983E-06
    4    5   -0.17160697E-05 -0.49756151E-07
    5    5    0.43769949E-07  0.23556927E-07
    6    5   -0.10421711E-04  0.14322541E-06
    7    5    0.47847460E-05  0.14984659E-06
    8    5   -0.21260067E-05  0.70691025E-07
    9    5   -0.59701735E-05 -0.29652580E-06
   10    5    0.19877012E-04 -0.31504320E-06
   11    5   -0.52449331E-05 -0.28243187E-06
   12    5    0.50074087E-05  0.48399526E-07
    1    6   -0.36835118E-05  0.23050790E-06
    2    6   -0.94618806E-06  0.20382083E-06
    3    6   -0.18306732E-05  0.35204499E-06
    4    6   -0.64954513E-05 -0.37920134E-06
    5    6    0.99922785E-05  0.22735549E-06
    6    6   -0.78704329E-07  0.92881294E-07
    7    6   -0.26220301E-05 -0.15389822E-06
    8    6   -0.44170691E-05 -0.29437384E-06
    9    6   -0.19852088E-04 -0.47780954E-07
   10    6   -0.58540064E-05  0.23670926E-06
   11    6   -0.53416857E-05  0.32217460E-06
   12    6   -0.45241915E-05 -0.64255448E-07
    1    7    0.17002702E-06 -0.36373570E-06
    2    7    0.45941861E-05 -0.89530705E-07
    3    7   -0.11039412E-05 -0.31019546E-06
    4    7    0.14889586E-05  0.11778042E-07
    5    7   -0.50096755E-05  0.86499517E-07
    6    7    0.58318142E-07  0.63555744E-07
    7    7   -0.73918118E-06  0.23349080E-07
    8    7   -0.20195190E-05  0.13543084E-06
    9    7    0.10168955E-04 -0.27678369E-06
   10    7   -0.52639409E-05 -0.29219944E-06
   11    7   -0.94240870E-06 -0.67251813E-07
   12    7   -0.22323340E-05 -0.36146588E-06
    1    8    0.47154459E-05  0.65201169E-07
    2    8    0.30132351E-07  0.31255896E-06
    3    8   -0.14232169E-05  0.24448806E-06
    4    8   -0.96852979E-06  0.10538906E-06
    5    8    0.54137063E-06 -0.48991116E-07
    6    8    0.50674417E-05 -0.14402005E-06
    7    8    0.25717893E-05 -0.18960788E-06
    8    8   -0.56700158E-06 -0.37650794E-07
    9    8   -0.57787333E-05  0.17689854E-06
   10    8   -0.10680034E-04  0.80309603E-07
   11    8   -0.19597053E-05  0.22768641E-06
   12    8    0.88037215E-06 -0.39520284E-06
    1    9    0.19353739E-05  0.10739117E-06
    2    9    0.26092072E-06  0.93925736E-07
    3    9   -0.41216297E-05 -0.13788787E-06
    4    9    0.50728567E-05 -0.11970578E-06
    5    9   -0.24541993E-05  0.55972100E-07
    6    9   -0.43908615E-06  0.25809872E-08
    7    9   -0.14380555E-05 -0.97159465E-07
    8    9    0.34235675E-05 -0.63773705E-07
    9    9   -0.81012528E-06 -0.40774864E-07
   10    9    0.21062836E-05  0.31098524E-06
   11    9    0.74511551E-05  0.13018455E-06
   12    9    0.29034013E-05  0.21217993E-06
    1   10    0.26794352E-06 -0.52661787E-07
    2   10    0.18137404E-05  0.64870297E-07
    3   10    0.48889013E-05 -0.20409155E-07
    4   10    0.43225807E-05  0.91488387E-07
    5   10    0.40728180E-06 -0.14429744E-06
    6   10   -0.21336611E-05  0.74169011E-08
    7   10    0.32641296E-05 -0.35077054E-07
    8   10    0.14100096E-05  0.25400704E-06
    9   10   -0.25475049E-05 -0.16553446E-06
   10   10   -0.52384378E-06  0.64485758E-08
   11   10   -0.26003096E-05 -0.31027518E-08
   12   10    0.73061281E-05  0.31924709E-06
    1   11   -0.57070968E-05  0.75351302E-08
    2   11    0.50566344E-05  0.19116218E-06
    3   11   -0.14709631E-05 -0.28967946E-07
    4   11   -0.45257824E-05  0.67021309E-07
    5   11    0.69970166E-05 -0.17436505E-06
    6   11    0.43382495E-05  0.20729156E-06
    7   11   -0.20370916E-05  0.21376662E-06
    8   11   -0.21170694E-05 -0.11955768E-07
    9   11   -0.71333543E-05  0.29635577E-06
   10   11    0.33223272E-05 -0.25084892E-06
   11   11    0.12449367E-06  0.20891883E-06
   12   11   -0.10102144E-04 -0.20656759E-06
    1   12   -0.49061706E-05 -0.18875563E-06
    2   12   -0.59341493E-05 -0.19842073E-06
    3   12   -0.49278018E-05 -0.77115385E-07
    4   12    0.13813124E-05 -0.73892309E-07
    5   12   -0.40130626E-05 -0.29582113E-06
    6   12    0.62691724E-05 -0.27912212E-06
    7   12   -0.23029470E-05 -0.10428111E-07
    8   12    0.23939278E-05 -0.13922556E-06
    9   12   -0.31313795E-05  0.22225799E-06
   10   12   -0.73210926E-05  0.28034034E-06
   11   12    0.10369572E-04 -0.23567044E-06
   12   12   -0.17191046E-06 -0.12245050E-06

   -6    4    0
    1    1   -0.28304483E-05 -0.45289535E-07
    2    1    0.20298132E-05  0.16089495E-06
    3    1   -0.26380261E-05 -0.25506647E-07
    4    1   -0.50167038E-05  0.19230873E-07
    5    1   -0.31761298E-05 -0.20273904E-06
    6    1    0.20145066E-05  0.45440133E-08
    7    1   -0.77546926E-06 -0.25550031E-06
    8    1    0.66259996E-05  0.32265236E-07
    9    1    0.24058978E-05  0.12132686E-06
   10    1    0.49673744E-05 -0.30986066E-06
   11    1    0.41295113E-05 -0.23187575E-06
   12    1   -0.59754901E-06 -0.18846426E-06
    1    2   -0.18025217E-05 -0.13961821E-06
    2    2   -0.27332036E-05 -0.56808261E-07
    3    2   -0.48873882E-05 -0.22249181E-06
    4    2    0.28632451E-05  0.97006044E-07
    5    2   -0.17975717E-05 -0.23707951E-06
    6    2   -0.30059351E-05 -0.10657835E-06
    7    2    0.74532471E-05 -0.41036164E-07
    8    2    0.36496048E-06  0.40270819E-06
    9    2   -0.53194898E-05 -0.15972850E-06
   10    2    0.25692742E-05 -0.27053250E-06
   11    2    0.60643745E-06 -0.31942653E-07
   12    2    0.45442344E-05 -0.54509732E-07
    1    3   -0.44025384E-05 -0.12725442E-06
    2    3   -0.37427569E-06 -0.67098915E-07
    3    3    0.12831052E-05  0.46532338E-07
    4    3    0.38975052E-05 -0.22440267E-06
    5    3   -0.91735757E-05  0.49902615E-07
    6    3    0.19642299E-05 -0.75940409E-07
    7    3   -0.53192028E-05 -0.12999533E-06
    8    3    0.52146434E-05 -0.98772858E-07
    9    3    0.46034915E-06  0.72777927E-07
   10    3   -0.34714171E-06  0.12794683E-06
   11    3    0.46877591E-05 -0.15570258E-06
   12    3   -0.13070566E-05  0.47353803E-06
    1    4   -0.45047829E-06 -0.17056240E-06
    2    4    0.42636254E-05  0.54159663E-08
    3    4   -0.35675396E-05 -0.33936367E-06
    4    4    0.93937639E-06 -0.21937700E-06
    5    4    0.17897927E-05 -0.55003804E-07
    6    4    0.95385227E-05 -0.74542543E-07
    7    4   -0.55693101E-05  0.46512609E-07
    8    4   -0.57862771E-05 -0.61523369E-07
    9    4    0.26265093E-07  0.58891420E-07
   10    4   -0.10955714E-06 -0.27874805E-06
   11    4   -0.14379149E-05 -0.11173845E-06
   12    4   -0.46090097E-05  0.55699440E-07
    1    5    0.40952429E-06  0.29730021E-06
    2    5   -0.17484589E-06  0.72120640E-08
    3    5    0.21661708E-05  0.26396324E-06
    4    5   -0.21614602E-05  0.36677074E-06
    5    5   -0.21216235E-06 -0.96287451E-07
    6    5   -0.85021056E-05 -0.19547434E-07
    7    5   -0.70580939E-06  0.34514341E-06
    8    5   -0.63523398E-05  0.68447608E-08
    9    5   -0.66222161E-05 -0.46998068E-07
   10    5    0.12090075E-04  0.24980641E-06
   11    5   -0.66800375E-05  0.44379233E-06
   12    5    0.73432201E-05  0.13647092E-06
    1    6    0.24908314E-07 -0.18568289E-08
    2    6    0.54253585E-06 -0.13160330E-06
    3    6   -0.22029783E-05 -0.10251506E-06
    4    6   -0.22566820E-05 -0.37775817E-08
    5    6    0.89765003E-05  0.18599171E-07
    6    6   -0.50089301E-06  0.13832367E-06
    7    6   -0.60997747E-05 -0.20970482E-06
    8    6    0.77941164E-06 -0.30211499E-06
    9    6   -0.11192548E-04 -0.31657773E-06
   10    6   -0.66808642E-05 -0.34703335E-06
   11    6   -0.72037751E-05 -0.25962255E-06
   12    6   -0.69113319E-05 -0.89125314E-07
    1    7   -0.13620598E-05 -0.17255048E-06
    2    7    0.63651765E-05 -0.28744929E-07
    3    7    0.21453996E-05  0.18580242E-06
    4    7    0.20708423E-05 -0.25742024E-06
    5    7   -0.77146500E-05  0.19519415E-06
    6    7   -0.17367795E-05 -0.80674100E-07
    7    7    0.29489017E-05  0.16608365E-06
    8    7   -0.20706808E-05  0.35455073E-06
    9    7    0.83934333E-05 -0.24100457E-06
   10    7   -0.25659302E-05 -0.10789184E-06
   11    7    0.24302105E-05 -0.66767651E-07
   12    7   -0.93738965E-06  0.83333361E-08
    1    8    0.66451952E-05 -0.51432666E-07
    2    8    0.10991498E-05  0.25191926E-06
    3    8   -0.24060923E-05 -0.32016078E-07
    4    8    0.22056164E-05 -0.69256692E-07
    5    8   -0.17734152E-05  0.25846389E-06
    6    8    0.76802367E-05 -0.27895536E-06
    7    8    0.18527808E-05  0.11080863E-06
    8    8    0.29334463E-05 -0.10507920E-06
    9    8   -0.34165102E-05 -0.96372203E-07
   10    8   -0.78532195E-05  0.34594575E-07
   11    8   -0.51841934E-06 -0.51197722E-06
   12    8   -0.24716048E-05 -0.16615096E-06
    1    9    0.63903376E-05  0.21077928E-06
    2    9   -0.29713981E-05 -0.26119354E-07
    3    9    0.68619228E-06 -0.16501385E-06
    4    9   -0.77292579E-06 -0.21460353E-06
    5    9    0.24317734E-05 -0.98217707E-08
    6    9    0.26612949E-05 -0.14037610E-07
    7    9    0.38597465E-05 -0.10400318E-07
    8    9    0.77214053E-05  0.93368595E-07
    9    9   -0.16711969E-05 -0.49723348E-08
   10    9   -0.38237261E-05  0.16540353E-08
   11    9    0.51360496E-05  0.14980905E-06
   12    9    0.19354509E-06  0.44234261E-07
    1   10    0.25264756E-05  0.50247024E-08
    2   10    0.65975084E-05  0.13937764E-06
    3   10   -0.64791741E-06 -0.11478980E-06
    4   10   -0.10484558E-05  0.27491412E-07
    5   10   -0.29620931E-05  0.13425347E-06
    6   10    0.25479266E-05  0.10540090E-07
    7   10    0.75195569E-05 -0.67736305E-07
    8   10   -0.38179979E-05 -0.14731462E-06
    9   10    0.41204519E-05 -0.13514131E-06
   10   10   -0.21748617E-05 -0.19959766E-06
   11   10   -0.54650165E-06  0.48524214E-07
   12   10    0.49235566E-05  0.38127138E-07
    1   11   -0.35398991E-05 -0.14568540E-06
    2   11    0.17693809E-05  0.16497377E-06
    3   11   -0.60059946E-05  0.48258521E-09
    4   11   -0.33904251E-06 -0.22296725E-06
    5   11    0.55416114E-05 -0.16967851E-06
    6   11    0.50032292E-05  0.22689885E-06
    7   11    0.66609604E-06  0.28274945E-08
    8   11   -0.79599426E-05 -0.19643689E-06
    9   11   -0.47108556E-05  0.16206974E-06
   10   11    0.15582181E-05 -0.43789634E-06
   11   11    0.80432766E-06 -0.17944442E-06
   12   11   -0.87960682E-05  0.18873228E-06
    1   12   -0.17329472E-05 -0.19836391E-06
    2   12   -0.37562372E-05  0.26587814E-07
    3   12   -0.18062856E-06  0.14892372E-06
    4   12    0.61246042E-05 -0.11647762E-06
    5   12   -0.46317431E-05 -0.24806865E-06
    6   12    0.59760908E-05 -0.31369548E-06
    7   12   -0.75262363E-05 -0.78701350E-07
    8   12   -0.10014935E-05  0.54296993E-07
    9   12   -0.12778925E-05  0.26026419E-06
   10   12   -0.43199236E-05  0.21401713E-06
   11   12    0.89892538E-05  0.10929658E-06
   12   12    0.11666935E-05  0.24971840E-06

   -6    5    0
    1    1   -0.37841896E-05  0.41670553E-08
    2    1   -0.25069062E-05  0.10326152E-07
    3    1   -0.35025092E-05  0.16124016E-06
    4    1   -0.20560140E-05 -0.20460924E-06
    5    1   -0.56719364E-05  0.17582183E-06
    6    1   -0.53812589E-05  0.42713704E-07
    7    1   -0.69334417E-06 -0.14702542E-07
    8    1    0.73520273E-05 -0.10725110E-06
    9    1    0.20566646E-05 -0.59062439E-07
   10    1    0.40088088E-05  0.91469623E-07
   11    1    0.33253486E-05 -0.18926104E-06
   12    1   -0.54993257E-05 -0.29002318E-07
    1    2    0.25562325E-05  0.12751973E-07
    2    2   -0.37920233E-05  0.37515418E-07
    3    2   -0.22591362E-05 -0.22070995E-07
    4    2    0.33827697E-05  0.21098786E-06
    5    2    0.50061357E-05 -0.68825043E-07
    6    2   -0.57200050E-05  0.65224652E-07
    7    2    0.69998419E-05  0.79622170E-07
    8    2    0.48807568E-06  0.10206893E-06
    9    2   -0.45116894E-05  0.19508553E-06
   10    2    0.21836470E-05  0.24583117E-06
   11    2    0.54207829E-05  0.22043053E-06
   12    2    0.34017455E-05 -0.41585724E-06
    1    3    0.22026136E-05  0.21911983E-06
    2    3    0.49318169E-05  0.15822072E-07
    3    3    0.86996904E-06 -0.74501404E-07
    4    3    0.79826754E-05  0.27118625E-07
    5    3   -0.58814689E-05 -0.14484924E-06
    6    3    0.32719349E-05  0.11988354E-06
    7    3   -0.47848051E-05  0.31170467E-07
    8    3    0.23948995E-05  0.17865988E-06
    9    3    0.11630919E-05  0.36535731E-07
   10    3   -0.15257039E-05  0.13328033E-07
   11    3    0.41476138E-05 -0.13132330E-06
   12    3    0.25742391E-05 -0.82178993E-07
    1    4    0.50648208E-05  0.16863900E-07
    2    4   -0.19414925E-05 -0.31479709E-07
    3    4   -0.76561809E-05  0.35590006E-06
    4    4    0.78125982E-06  0.65053542E-07
    5    4    0.34271563E-05 -0.87141107E-07
    6    4    0.57854925E-05 -0.79292991E-07
    7    4   -0.24395055E-05 -0.10737896E-06
    8    4   -0.46807035E-05  0.31555237E-06
    9    4   -0.12601335E-05 -0.14073890E-06
   10    4   -0.17146039E-05  0.53495131E-07
   11    4    0.21828707E-05  0.39983010E-06
   12    4   -0.39916325E-05  0.19209823E-06
    1    5   -0.99888963E-06 -0.28625228E-07
    2    5    0.84853963E-06  0.67427302E-07
    3    5    0.14841568E-05 -0.33526641E-07
    4    5   -0.17003714E-05 -0.41363091E-06
    5    5   -0.26632030E-05  0.26733546E-06
    6    5   -0.41707731E-05  0.37577256E-07
    7    5   -0.66754780E-06  0.27766275E-06
    8    5   -0.45402928E-05 -0.62416310E-07
    9    5   -0.22356420E-05  0.22016390E-07
   10    5    0.12934782E-05  0.27362574E-06
   11    5   -0.27210215E-05 -0.14883118E-06
   12    5    0.34915516E-05 -0.95435319E-07
    1    6   -0.50948229E-06 -0.28045828E-07
    2    6   -0.69803889E-06 -0.27549006E-07
    3    6   -0.15216983E-05 -0.19179116E-06
    4    6   -0.11423543E-05 -0.11753798E-06
    5    6    0.42213757E-05 -0.21667052E-07
    6    6   -0.25194968E-05 -0.97808379E-07
    7    6   -0.41814686E-05  0.21979276E-06
    8    6    0.45685541E-06 -0.13307666E-06
    9    6   -0.13744810E-05 -0.85139692E-07
   10    6   -0.19701077E-05 -0.27789507E-06
   11    6   -0.33487684E-05 -0.10144427E-06
   12    6   -0.25556359E-05  0.24408451E-06
    1    7   -0.89208450E-06 -0.20441370E-06
    2    7    0.30057656E-05  0.13920512E-07
    3    7    0.14783916E-05  0.15129407E-06
    4    7    0.42015502E-05  0.98953842E-07
    5    7   -0.36009448E-05  0.22992902E-06
    6    7    0.36570019E-06  0.18614744E-06
    7    7    0.42607339E-05 -0.10585466E-06
    8    7    0.11233425E-05 -0.11969801E-06
    9    7   -0.80781030E-06  0.26587892E-09
   10    7   -0.37818511E-05  0.60108849E-06
   11    7    0.34980628E-06  0.21504373E-06
   12    7    0.23989761E-05 -0.12619343E-06
    1    8    0.21781747E-05 -0.12736952E-06
    2    8    0.79513555E-06  0.10344626E-06
    3    8   -0.40303049E-05 -0.10475443E-06
    4    8    0.12042310E-05 -0.45920967E-07
    5    8    0.16049566E-06  0.35272731E-07
    6    8    0.34707413E-05 -0.16810615E-06
    7    8   -0.13837041E-05 -0.14516102E-06
    8    8    0.40882864E-05  0.14250681E-06
    9    8   -0.33255072E-05  0.23322641E-07
   10    8    0.47110718E-06  0.27110827E-07
   11    8    0.21717040E-05 -0.11548010E-06
   12    8   -0.43003448E-06  0.33852003E-06
    1    9    0.59098035E-05 -0.43873950E-07
    2    9   -0.32672632E-05  0.10405297E-06
    3    9    0.63167905E-05  0.14968936E-06
    4    9   -0.62532391E-05  0.98523770E-07
    5    9    0.24895520E-05 -0.58259048E-07
    6    9    0.52216689E-05 -0.12905187E-06
    7    9    0.86368441E-06  0.15354942E-06
    8    9    0.51184874E-05 -0.14595000E-06
    9    9   -0.68689305E-06 -0.68444644E-07
   10    9   -0.71718463E-05 -0.20305504E-06
   11    9   -0.20219580E-05  0.77992276E-07
   12    9   -0.16576792E-05 -0.42271636E-07
    1   10    0.29693216E-05  0.16137307E-07
    2   10    0.60611621E-05  0.20873997E-07
    3   10   -0.61807781E-05 -0.40876286E-07
    4   10   -0.63072247E-05  0.88877242E-07
    5   10   -0.49869407E-05  0.87034464E-07
    6   10    0.23657065E-05  0.42299829E-07
    7   10    0.52003742E-05  0.22224813E-07
    8   10   -0.38794146E-06  0.56894614E-07
    9   10    0.74165274E-05  0.60136015E-07
   10   10   -0.96514304E-06  0.45134025E-07
   11   10    0.15052670E-05 -0.11505454E-06
   12   10   -0.18230075E-05 -0.70209264E-08
    1   11    0.42650491E-06  0.67377839E-07
    2   11   -0.10777514E-06 -0.83315438E-07
    3   11   -0.50267591E-05 -0.33517523E-08
    4   11    0.35539139E-05  0.92980021E-07
    5   11    0.40437615E-05 -0.16570365E-06
    6   11    0.48144661E-05  0.18656147E-06
    7   11    0.13308291E-05 -0.15096643E-06
    8   11   -0.65579676E-05  0.82378162E-07
    9   11   -0.40099845E-05  0.44155631E-07
   10   11   -0.39599589E-05  0.19310413E-06
   11   11    0.26688098E-05  0.13375362E-06
   12   11   -0.44195088E-05 -0.10100874E-07
    1   12    0.41352370E-06  0.17946185E-06
    2   12    0.56397830E-06  0.24123197E-07
    3   12    0.38286218E-05 -0.92417325E-07
    4   12    0.51214752E-05  0.37343822E-07
    5   12   -0.50538010E-05 -0.57412878E-07
    6   12    0.39882520E-05 -0.30913888E-07
    7   12   -0.67691644E-05 -0.65402369E-07
    8   12   -0.14641027E-05  0.92415418E-07
    9   12    0.34395415E-05 -0.26720796E-07
   10   12   -0.43697401E-05  0.91704235E-07
   11   12    0.43638031E-05 -0.42242193E-07
   12   12    0.29265127E-05 -0.46427200E-07

   -6    6    0
    1    1   -0.29796728E-05  0.32789440E-13
    2    1   -0.39647378E-07 -0.49679875E-07
    3    1    0.24203996E-05 -0.20089409E-06
    4    1    0.46896086E-05  0.91276946E-07
    5    1   -0.45866261E-05 -0.14990690E-09
    6    1   -0.58855737E-05  0.35770217E-07
    7    1   -0.16692817E-06  0.56323170E-07
    8    1    0.31561883E-05 -0.11585034E-06
    9    1    0.42146254E-05  0.78299912E-07
   10    1    0.40090151E-05  0.68371223E-07
   11    1    0.35053042E-05 -0.25502523E-06
   12    1   -0.36704108E-05 -0.22092467E-06
    1    2   -0.39648890E-07  0.49679934E-07
    2    2   -0.30699324E-05 -0.14521923E-14
    3    2    0.45387064E-05 -0.38587191E-07
    4    2   -0.26416357E-05 -0.55208890E-07
    5    2    0.58983308E-05  0.21257182E-06
    6    2   -0.48361938E-05  0.87161457E-07
    7    2    0.30300547E-05  0.11983807E-06
    8    2    0.26551804E-06 -0.22524531E-06
    9    2   -0.36068327E-05 -0.22593780E-07
   10    2    0.40383104E-05  0.11126695E-06
   11    2    0.36928140E-05  0.19532265E-06
   12    2    0.31414111E-05  0.22613144E-07
    1    3    0.24203998E-05  0.20089408E-06
    2    3    0.45387047E-05  0.38587294E-07
    3    3    0.23105458E-06 -0.18345502E-13
    4    3   -0.19174391E-06 -0.46546813E-06
    5    3   -0.80602229E-06  0.11561239E-06
    6    3    0.20206097E-05  0.13284639E-06
    7    3   -0.28288673E-05  0.39624510E-06
    8    3   -0.18449884E-05  0.27884984E-06
    9    3    0.45022132E-05 -0.50249165E-07
   10    3   -0.43037916E-05 -0.19127281E-06
   11    3    0.93368181E-06 -0.26425788E-06
   12    3    0.45846225E-05  0.79513787E-07
    1    4    0.46896069E-05 -0.91276917E-07
    2    4   -0.26416357E-05  0.55209013E-07
    3    4   -0.19174390E-06  0.46546821E-06
    4    4   -0.91046329E-07  0.15363142E-13
    5    4    0.22490887E-05  0.50451646E-06
    6    4    0.70811971E-06  0.12107041E-06
    7    4    0.20678817E-05 -0.24168838E-06
    8    4   -0.21760747E-05 -0.94839985E-07
    9    4   -0.42302116E-05 -0.51042527E-07
   10    4   -0.40971572E-05  0.12132530E-06
   11    4    0.48371816E-05  0.89043446E-07
   12    4   -0.10829719E-05  0.18584479E-06
    1    5   -0.45866247E-05  0.14991234E-09
    2    5    0.58983317E-05 -0.21257182E-06
    3    5   -0.80602169E-06 -0.11561242E-06
    4    5    0.22490883E-05 -0.50451648E-06
    5    5   -0.30129492E-05  0.37155655E-13
    6    5   -0.30452589E-06 -0.13912768E-06
    7    5   -0.34096742E-06  0.96429722E-07
    8    5    0.75808976E-06  0.26471898E-06
    9    5   -0.61442132E-08 -0.22425831E-06
   10    5   -0.45630338E-05 -0.16552050E-06
   11    5    0.16646529E-05 -0.15359999E-06
   12    5   -0.23388004E-05 -0.38841242E-07
    1    6   -0.58855744E-05 -0.35770251E-07
    2    6   -0.48361925E-05 -0.87161490E-07
    3    6    0.20206094E-05 -0.13284638E-06
    4    6    0.70811928E-06 -0.12107036E-06
    5    6   -0.30452440E-06  0.13912756E-06
    6    6   -0.30540852E-05 -0.31733595E-13
    7    6    0.34508906E-06 -0.80791064E-07
    8    6    0.16724797E-07 -0.11006027E-06
    9    6    0.42354822E-05  0.88645906E-07
   10    6   -0.12483532E-06  0.10280658E-06
   11    6    0.22860518E-05  0.14950299E-06
   12    6    0.14489398E-05 -0.88678672E-07
    1    7   -0.16692874E-06 -0.56323261E-07
    2    7    0.30300564E-05 -0.11983806E-06
    3    7   -0.28288664E-05 -0.39624512E-06
    4    7    0.20678812E-05  0.24168842E-06
    5    7   -0.34096797E-06 -0.96429661E-07
    6    7    0.34508925E-06  0.80791117E-07
    7    7    0.39283866E-05 -0.28677011E-13
    8    7    0.13894257E-06  0.36319158E-07
    9    7   -0.47565200E-05  0.14499605E-06
   10    7   -0.16275207E-05  0.14595339E-06
   11    7    0.16321272E-06 -0.20748276E-06
   12    7   -0.13778430E-06 -0.20394614E-06
    1    8    0.31561898E-05  0.11585030E-06
    2    8    0.26551853E-06  0.22524544E-06
    3    8   -0.18449880E-05 -0.27884986E-06
    4    8   -0.21760740E-05  0.94840012E-07
    5    8    0.75808992E-06 -0.26471910E-06
    6    8    0.16725453E-07  0.11006032E-06
    7    8    0.13894396E-06 -0.36319185E-07
    8    8    0.41448605E-05  0.55893925E-13
    9    8   -0.14949280E-05  0.43405762E-06
   10    8    0.43522877E-05  0.89770304E-07
   11    8   -0.99794094E-07  0.15867422E-06
   12    8    0.21644642E-06 -0.28893826E-06
    1    9    0.42146244E-05 -0.78299810E-07
    2    9   -0.36068318E-05  0.22593841E-07
    3    9    0.45022126E-05  0.50249229E-07
    4    9   -0.42302106E-05  0.51042618E-07
    5    9   -0.61459405E-08  0.22425831E-06
    6    9    0.42354847E-05 -0.88645908E-07
    7    9   -0.47565215E-05 -0.14499601E-06
    8    9   -0.14949268E-05 -0.43405768E-06
    9    9    0.14728742E-07  0.71440501E-15
   10    9    0.32709627E-07 -0.48228644E-06
   11    9   -0.52544300E-05 -0.14038448E-06
   12    9    0.14673177E-05  0.15228623E-06
    1   10    0.40090142E-05 -0.68371239E-07
    2   10    0.40383093E-05 -0.11126691E-06
    3   10   -0.43037907E-05  0.19127284E-06
    4   10   -0.40971564E-05 -0.12132535E-06
    5   10   -0.45630360E-05  0.16552055E-06
    6   10   -0.12483713E-06 -0.10280664E-06
    7   10   -0.16275192E-05 -0.14595336E-06
    8   10    0.43522892E-05 -0.89770354E-07
    9   10    0.32709603E-07  0.48228639E-06
   10   10    0.50394949E-06  0.30338673E-15
   11   10   -0.12008708E-05 -0.16495777E-06
   12   10   -0.51793495E-05 -0.61843475E-08
    1   11    0.35053016E-05  0.25502523E-06
    2   11    0.36928139E-05 -0.19532254E-06
    3   11    0.93368142E-06  0.26425796E-06
    4   11    0.48371810E-05 -0.89043431E-07
    5   11    0.16646541E-05  0.15359990E-06
    6   11    0.22860528E-05 -0.14950296E-06
    7   11    0.16321268E-06  0.20748277E-06
    8   11   -0.99792897E-07 -0.15867414E-06
    9   11   -0.52544307E-05  0.14038451E-06
   10   11   -0.12008697E-05  0.16495772E-06
   11   11    0.43738390E-05 -0.43359181E-14
   12   11    0.73753488E-07  0.16123690E-06
    1   12   -0.36704107E-05  0.22092458E-06
    2   12    0.31414086E-05 -0.22613164E-07
    3   12    0.45846219E-05 -0.79513837E-07
    4   12   -0.10829716E-05 -0.18584477E-06
    5   12   -0.23388015E-05  0.38841164E-07
    6   12    0.14489409E-05  0.88678695E-07
    7   12   -0.13778324E-06  0.20394618E-06
    8   12    0.21644651E-06  0.28893831E-06
    9   12    0.14673165E-05 -0.15228624E-06
   10   12   -0.51793502E-05  0.61844029E-08
   11   12    0.73754856E-07 -0.16123691E-06
   12   12    0.36320865E-05  0.21955343E-13

   -5   -2    0
    1    1   -0.42451938E-06  0.34616508E-08
    2    1    0.24029327E-05 -0.47156428E-07
    3    1    0.60758438E-05 -0.37005626E-08
    4    1    0.59011359E-05 -0.10364326E-06
    5    1   -0.31956859E-05  0.64738665E-08
    6    1    0.50981706E-05 -0.52826306E-07
    7    1    0.13085868E-05 -0.15789568E-06
    8    1   -0.86973589E-05  0.12125596E-07
    9    1   -0.46566466E-05  0.43446172E-07
   10    1   -0.75309704E-05  0.43550826E-07
   11    1    0.18631855E-05  0.15110051E-06
   12    1    0.32780834E-05 -0.82499004E-07
    1    2   -0.26410752E-05  0.85234895E-07
    2    2   -0.41285267E-06  0.18181854E-08
    3    2    0.56198410E-05 -0.38562099E-07
    4    2   -0.63124979E-05  0.72522737E-07
    5    2   -0.51263961E-05  0.31226518E-07
    6    2   -0.32336283E-05 -0.52695330E-07
    7    2   -0.88069822E-05 -0.61944694E-07
    8    2   -0.10843009E-05 -0.78403863E-07
    9    2    0.80606884E-05 -0.17611602E-07
   10    2   -0.50032893E-05  0.10182349E-06
   11    2   -0.33029629E-05  0.91163325E-07
   12    2    0.16360507E-05  0.61045161E-07
    1    3    0.13818033E-05  0.11744828E-06
    2    3    0.48223292E-05  0.12008856E-07
    3    3   -0.47345490E-05 -0.12947164E-06
    4    3   -0.22474933E-05 -0.55502839E-07
    5    3    0.38686518E-05  0.22399028E-06
    6    3   -0.22515664E-06  0.62415247E-07
    7    3    0.65546476E-05  0.59168733E-07
    8    3   -0.57252751E-06 -0.12065657E-06
    9    3   -0.17657715E-05 -0.32058881E-06
   10    3    0.11397191E-05 -0.36797024E-06
   11    3    0.14369300E-05  0.40240571E-07
   12    3   -0.78229761E-05 -0.16541713E-06
    1    4    0.48987740E-05  0.73687342E-07
    2    4   -0.15518861E-05  0.34441149E-07
    3    4    0.19153602E-05  0.12889150E-07
    4    4   -0.44332684E-05 -0.10566461E-06
    5    4   -0.19582307E-06  0.33497490E-06
    6    4   -0.40900297E-05 -0.21093869E-07
    7    4    0.63915949E-06 -0.10804616E-06
    8    4    0.68364250E-05 -0.14043521E-06
    9    4    0.99381256E-06 -0.35320218E-06
   10    4    0.27355213E-05  0.29333984E-06
   11    4   -0.72944482E-05 -0.40413610E-07
   12    4   -0.16152331E-05 -0.81677616E-07
    1    5   -0.42250348E-05 -0.15876844E-06
    2    5   -0.69341126E-06  0.60569517E-07
    3    5    0.71890533E-05 -0.17999846E-06
    4    5    0.53405559E-05 -0.24774043E-06
    5    5    0.48947537E-05  0.24518898E-07
    6    5    0.14180581E-05  0.63944567E-07
    7    5    0.80156856E-05  0.44617100E-07
    8    5   -0.42173842E-06  0.12492582E-06
    9    5   -0.75965080E-05  0.14070652E-06
   10    5   -0.31430059E-05  0.15501354E-06
   11    5    0.49880790E-05 -0.33928368E-06
   12    5   -0.52779340E-05 -0.18284121E-06
    1    6    0.80600616E-06 -0.72431061E-07
    2    6   -0.41699675E-05 -0.63866210E-07
    3    6    0.50928964E-05  0.17150371E-06
    4    6   -0.74656057E-05 -0.18846685E-07
    5    6   -0.18163853E-05 -0.15645692E-06
    6    6    0.48860293E-05  0.77058188E-07
    7    6   -0.84459272E-06  0.10523029E-06
    8    6   -0.74127733E-05  0.13400929E-07
    9    6    0.31398034E-05  0.28388488E-06
   10    6   -0.70483801E-05 -0.68760581E-07
   11    6    0.52237560E-05  0.26170018E-06
   12    6    0.44599969E-05 -0.15830987E-06
    1    7    0.10934321E-05  0.11914167E-06
    2    7   -0.87425270E-05  0.43623280E-07
    3    7    0.18159006E-05 -0.21985432E-06
    4    7   -0.31099087E-05 -0.12364751E-07
    5    7    0.91468789E-05  0.39958364E-07
    6    7   -0.21404226E-05  0.77970134E-08
    7    7   -0.51167481E-06  0.55692755E-07
    8    7   -0.24171093E-05 -0.14903285E-07
    9    7   -0.54304221E-05 -0.21661335E-06
   10    7   -0.29353556E-05 -0.77725715E-07
   11    7   -0.77235620E-05 -0.45379873E-08
   12    7    0.32634696E-05 -0.70782609E-07
    1    8   -0.88375904E-05 -0.43961716E-07
    2    8   -0.11262435E-05  0.20061689E-06
    3    8    0.31335054E-05  0.23989655E-06
    4    8    0.21189465E-05 -0.51248304E-07
    5    8   -0.18786862E-05 -0.17059729E-06
    6    8   -0.87994053E-05  0.22567271E-07
    7    8    0.26353333E-05  0.88541214E-07
    8    8   -0.47007997E-06 -0.19060329E-07
    9    8   -0.27774595E-05  0.10149508E-06
   10    8    0.52833953E-05 -0.10870193E-06
   11    8    0.33875502E-05  0.42544895E-07
   12    8    0.78632198E-05  0.68905627E-07
    1    9   -0.29350907E-05  0.96821187E-08
    2    9    0.74608027E-05 -0.29994502E-07
    3    9   -0.48407608E-05  0.16497585E-06
    4    9    0.45438762E-05  0.21811425E-06
    5    9   -0.56309429E-05  0.31980983E-07
    6    9   -0.57249346E-05 -0.16969126E-06
    7    9   -0.11063869E-05  0.71879115E-07
    8    9   -0.40427669E-05 -0.10907478E-06
    9    9    0.47136513E-05 -0.35311078E-07
   10    9    0.14323004E-05  0.22526109E-07
   11    9    0.18938385E-05 -0.21545270E-06
   12    9    0.89285292E-05  0.21236296E-06
    1   10   -0.66464074E-05  0.30870711E-07
    2   10   -0.33122970E-05 -0.18574105E-06
    3   10    0.46861990E-05  0.20971420E-06
    4   10    0.56030317E-05 -0.18142225E-06
    5   10    0.56678683E-05  0.53695623E-08
    6   10   -0.54098459E-05 -0.13815897E-06
    7   10   -0.41765640E-05  0.23673982E-06
    8   10    0.94719583E-06  0.18017653E-06
    9   10   -0.17394259E-05  0.85137020E-07
   10   10    0.51170354E-05 -0.15495924E-06
   11   10   -0.86436732E-05 -0.13422627E-07
   12   10    0.17376772E-05  0.45659717E-07
    1   11    0.68881775E-05 -0.91062386E-08
    2   11    0.70936299E-07  0.61853753E-07
    3   11    0.16918531E-05 -0.17803364E-07
    4   11   -0.73835169E-05  0.32335786E-07
    5   11    0.12746964E-05  0.45689898E-06
    6   11    0.24263475E-05 -0.53520007E-06
    7   11   -0.29175142E-05 -0.15891204E-07
    8   11    0.41341009E-05 -0.91624711E-07
    9   11   -0.18623701E-05 -0.42443939E-07
   10   11   -0.34718066E-05  0.89110406E-07
   11   11   -0.43741269E-05  0.11180344E-07
   12   11    0.21875709E-05 -0.12871115E-06
    1   12   -0.11586052E-06 -0.16076145E-07
    2   12    0.66099566E-05  0.81638468E-07
    3   12   -0.76631570E-05  0.11327461E-06
    4   12   -0.17509519E-05  0.86190324E-07
    5   12   -0.23703217E-05  0.18340373E-06
    6   12    0.11700963E-05  0.30713198E-06
    7   12    0.40013691E-05  0.12020049E-06
    8   12    0.31402436E-05  0.40568666E-07
    9   12    0.37340839E-05 -0.25557148E-06
   10   12   -0.18462544E-05 -0.74094012E-07
   11   12   -0.20697390E-05  0.17926940E-06
   12   12   -0.47205904E-05  0.18474624E-06

   -5   -1    0
    1    1   -0.70294793E-06 -0.58406467E-07
    2    1    0.74322328E-05 -0.22780278E-06
    3    1    0.13047969E-05  0.28725963E-07
    4    1    0.49446011E-05  0.96421289E-07
    5    1    0.64204086E-06 -0.33873875E-07
    6    1    0.64406586E-05 -0.12105068E-06
    7    1    0.68340965E-06 -0.20015105E-06
    8    1   -0.60944589E-05  0.26357628E-07
    9    1   -0.74730874E-06  0.30170971E-06
   10    1   -0.50632654E-05 -0.32807225E-06
   11    1    0.73004053E-05  0.61677048E-08
   12    1    0.37492138E-05 -0.10378830E-06
    1    2   -0.71556629E-05  0.52575895E-07
    2    2   -0.95456583E-06  0.82740995E-07
    3    2    0.52677297E-05  0.14220984E-06
    4    2   -0.11044776E-05 -0.16437472E-07
    5    2   -0.60442170E-05 -0.21694128E-07
    6    2    0.73185223E-06  0.34185115E-08
    7    2   -0.57392288E-05 -0.48340955E-07
    8    2   -0.10132421E-05  0.30297366E-06
    9    2    0.42879615E-05  0.21881257E-06
   10    2   -0.67167914E-06  0.13192995E-06
   11    2   -0.39317466E-05  0.83237380E-07
   12    2    0.80199987E-05  0.19787377E-06
    1    3   -0.38952004E-05  0.19220991E-07
    2    3    0.82677075E-06  0.19268931E-07
    3    3   -0.24734270E-05 -0.18255742E-06
    4    3   -0.41358406E-05 -0.20025178E-06
    5    3   -0.45531498E-06 -0.19261234E-06
    6    3    0.20324908E-07 -0.14138661E-07
    7    3    0.55375010E-05 -0.15120981E-06
    8    3   -0.21104007E-05  0.13782894E-06
    9    3    0.38323728E-05 -0.13083019E-06
   10    3   -0.47143017E-05  0.89666259E-08
   11    3   -0.23407006E-05 -0.82231195E-07
   12    3   -0.38771774E-05 -0.13263062E-06
    1    4    0.94669526E-06  0.50942129E-07
    2    4    0.38118887E-05  0.15806397E-06
    3    4    0.42608177E-05 -0.11235256E-06
    4    4   -0.27080308E-05  0.54463645E-08
    5    4   -0.19400405E-08 -0.23507331E-06
    6    4    0.69794577E-06 -0.81403963E-07
    7    4    0.17793718E-05  0.48588064E-07
    8    4    0.49794828E-05 -0.11955685E-06
    9    4   -0.36179901E-05 -0.68075751E-07
   10    4   -0.41404283E-05  0.49495187E-07
   11    4   -0.45124755E-05 -0.96073041E-07
   12    4    0.21328681E-05 -0.17236298E-06
    1    5   -0.81388293E-06 -0.88008942E-07
    2    5    0.67368670E-05  0.18890950E-06
    3    5    0.56195731E-05 -0.86403120E-07
    4    5    0.24609151E-05  0.30693043E-06
    5    5    0.41645221E-05 -0.86172865E-07
    6    5    0.14556863E-05  0.11881739E-06
    7    5    0.23237175E-05 -0.82081645E-07
    8    5   -0.36896082E-05  0.78253624E-07
    9    5    0.33080534E-05  0.15720771E-06
   10    5   -0.10301708E-04 -0.40585374E-06
   11    5   -0.37081263E-06  0.32180180E-06
   12    5   -0.14270590E-06  0.73947726E-07
    1    6   -0.72755073E-05 -0.47651298E-06
    2    6   -0.75763692E-06 -0.10772138E-06
    3    6    0.24908756E-05  0.24810485E-06
    4    6   -0.59039356E-05  0.22675558E-06
    5    6   -0.10603361E-05  0.20503032E-06
    6    6    0.41796904E-05  0.50950325E-07
    7    6   -0.32886360E-05  0.42723936E-07
    8    6   -0.25851622E-05 -0.24900646E-06
    9    6    0.11242658E-04  0.10277407E-06
   10    6    0.33054261E-05 -0.43640438E-08
   11    6    0.19395936E-06 -0.15912580E-06
   12    6   -0.49856442E-06 -0.11344485E-06
    1    7   -0.63456932E-06 -0.29670033E-06
    2    7    0.90377424E-06 -0.49060976E-07
    3    7    0.30816323E-05  0.30653511E-07
    4    7   -0.27950932E-05 -0.19475986E-07
    5    7    0.46049218E-05 -0.71890561E-08
    6    7   -0.39079737E-05 -0.84071186E-07
    7    7    0.97756662E-06  0.14897237E-06
    8    7   -0.79127304E-05 -0.33405265E-07
    9    7   -0.17470212E-05  0.11785105E-06
   10    7   -0.18804762E-05 -0.54605309E-07
   11    7   -0.37608299E-05  0.37395547E-07
   12    7   -0.14377944E-05  0.31952630E-06
    1    8    0.13180177E-05 -0.45413641E-08
    2    8    0.61816008E-06  0.30233430E-06
    3    8    0.28992677E-05 -0.15613087E-06
    4    8    0.33637362E-05 -0.10187268E-06
    5    8   -0.41805920E-05  0.17030317E-06
    6    8   -0.47184374E-05 -0.92833306E-07
    7    8    0.77207229E-05  0.30573804E-06
    8    8    0.67625250E-06 -0.14779827E-06
    9    8   -0.21125620E-05 -0.30567487E-06
   10    8    0.21046818E-05  0.13463994E-06
   11    8   -0.14141410E-05 -0.10582765E-06
   12    8    0.38528680E-05 -0.24581873E-07
    1    9   -0.36244641E-05  0.13675056E-06
    2    9    0.40014485E-05 -0.62664996E-07
    3    9   -0.55700263E-05 -0.42964205E-07
    4    9    0.44621958E-05 -0.10457127E-06
    5    9   -0.38906884E-05 -0.22380656E-06
    6    9   -0.38254351E-05  0.19084135E-06
    7    9   -0.19548167E-06 -0.10248180E-06
    8    9    0.42577280E-05  0.11037654E-06
    9    9    0.29430820E-05 -0.93203977E-07
   10    9    0.44665103E-05  0.79073148E-07
   11    9    0.64590628E-05 -0.53314880E-07
   12    9    0.95229957E-05 -0.13866780E-06
    1   10   -0.41901755E-05 -0.95381829E-07
    2   10   -0.33565742E-05  0.21091022E-06
    3   10    0.50375944E-05  0.23758681E-07
    4   10    0.51966451E-05 -0.57511691E-07
    5   10    0.31254775E-05 -0.77370240E-07
    6   10   -0.40022199E-05 -0.21312469E-06
    7   10    0.40996254E-05 -0.50098002E-07
    8   10    0.69963226E-07 -0.19203613E-06
    9   10   -0.43226224E-05  0.82770816E-07
   10   10    0.26494856E-05 -0.13575693E-09
   11   10   -0.95665790E-05  0.91289643E-07
   12   10    0.63697052E-05 -0.10575143E-06
    1   11    0.19628004E-05  0.14553421E-06
    2   11    0.15467761E-05  0.24927661E-06
    3   11    0.28927448E-05  0.26847225E-07
    4   11   -0.70854636E-05  0.11087704E-07
    5   11    0.25265499E-05  0.94518633E-07
    6   11    0.25304673E-05 -0.28671212E-07
    7   11    0.30891373E-05 -0.80379277E-07
    8   11    0.43668377E-05 -0.73681040E-07
    9   11   -0.57684651E-05  0.17762002E-06
   10   11    0.45576321E-06  0.25354674E-07
   11   11   -0.38811963E-05 -0.32712384E-07
   12   11    0.24991198E-05  0.14812298E-07
    1   12   -0.14791455E-05 -0.32767578E-06
    2   12    0.13350087E-05  0.13011259E-06
    3   12   -0.70499262E-05  0.92821826E-08
    4   12   -0.26228878E-05 -0.27776208E-06
    5   12   -0.23557096E-05  0.14172374E-06
    6   12    0.27519761E-05  0.10891480E-07
    7   12    0.46077062E-05  0.91557959E-07
    8   12   -0.29705211E-05  0.16513368E-06
    9   12   -0.42526000E-06  0.16105457E-06
   10   12   -0.54835836E-05  0.22653100E-06
   11   12   -0.25683743E-05 -0.26149009E-07
   12   12   -0.36848591E-05  0.11262239E-08

   -5    0    0
    1    1    0.27962913E-06  0.13222267E-06
    2    1   -0.11806475E-05 -0.32650072E-06
    3    1   -0.56363299E-05  0.96889088E-07
    4    1    0.10825248E-05  0.14826349E-07
    5    1    0.44899982E-05  0.85028564E-07
    6    1    0.13115959E-05 -0.42873177E-07
    7    1    0.56735938E-06  0.15007544E-07
    8    1   -0.16936664E-05 -0.39738332E-07
    9    1    0.25442426E-05  0.65872222E-07
   10    1    0.57954135E-05 -0.18132482E-06
   11    1    0.40890586E-05 -0.27791366E-06
   12    1   -0.27592265E-05 -0.63245076E-07
    1    2    0.14297016E-05  0.99571530E-07
    2    2    0.26414551E-06 -0.12600117E-06
    3    2    0.95233101E-06  0.32858408E-06
    4    2    0.54815704E-05  0.74812830E-07
    5    2   -0.16246521E-05  0.21427522E-06
    6    2    0.48472635E-05 -0.11500792E-07
    7    2   -0.22769139E-05  0.12765612E-06
    8    2    0.22759564E-07 -0.49341241E-07
    9    2   -0.59130787E-05  0.42300397E-06
   10    2    0.31934903E-05  0.16575487E-06
   11    2    0.29405800E-05  0.20244481E-06
   12    2    0.35253821E-05  0.13370831E-06
    1    3   -0.21111860E-05 -0.78958776E-07
    2    3   -0.54879548E-05  0.18121187E-06
    3    3    0.18418614E-05  0.15943794E-06
    4    3    0.87017254E-06  0.14273173E-06
    5    3   -0.11261739E-05 -0.32540768E-06
    6    3    0.48263185E-05 -0.15317417E-06
    7    3    0.34071809E-05 -0.49108087E-07
    8    3   -0.29663944E-05 -0.93968628E-07
    9    3    0.79964346E-05  0.42311143E-06
   10    3   -0.82531925E-05  0.35970439E-06
   11    3   -0.98942392E-06  0.28599695E-06
   12    3    0.58996404E-05 -0.52583897E-07
    1    4   -0.55998440E-05  0.33547208E-06
    2    4    0.26497108E-05  0.10007586E-06
    3    4   -0.68315972E-06 -0.50312461E-07
    4    4    0.19794242E-05 -0.10962653E-06
    5    4    0.46926183E-05 -0.16331204E-06
    6    4    0.97109671E-06  0.20198377E-06
    7    4    0.33186533E-05 -0.36839556E-07
    8    4    0.36743556E-05  0.51746825E-07
    9    4   -0.84587047E-05  0.67148823E-06
   10    4   -0.98200470E-05 -0.41590427E-06
   11    4    0.59502555E-05  0.36156229E-07
   12    4    0.16590271E-05  0.15728575E-06
    1    5    0.23036564E-05 -0.24895677E-06
    2    5    0.95512116E-05  0.40127522E-06
    3    5   -0.80581465E-06 -0.67525522E-07
    4    5   -0.82768857E-05  0.43692916E-06
    5    5   -0.19533025E-05  0.44949841E-07
    6    5   -0.78458661E-06 -0.36462039E-06
    7    5   -0.67883900E-05  0.42519949E-06
    8    5    0.72825166E-06 -0.34059539E-07
    9    5    0.19836206E-04 -0.15727720E-06
   10    5   -0.49920710E-05  0.56404853E-06
   11    5   -0.87449734E-05  0.21062394E-06
   12    5    0.86348591E-05  0.13453073E-06
    1    6   -0.91985510E-05 -0.36606506E-06
    2    6    0.16704631E-05  0.11010344E-06
    3    6   -0.83127087E-05 -0.30204963E-07
    4    6    0.10945448E-05  0.26898877E-06
    5    6    0.81346808E-06 -0.21565820E-06
    6    6   -0.15919500E-05 -0.97838914E-07
    7    6    0.71734094E-06  0.28854300E-06
    8    6    0.62224388E-05  0.21157833E-06
    9    6    0.29834893E-05 -0.17550393E-07
   10    6    0.19905853E-04  0.10192165E-06
   11    6   -0.92305034E-05 -0.53127276E-06
   12    6   -0.83011860E-05  0.59402465E-06
    1    7   -0.19095469E-05 -0.84441144E-07
    2    7    0.14799336E-04  0.56855980E-08
    3    7   -0.16380780E-05  0.22424840E-06
    4    7   -0.92900835E-06  0.16299545E-06
    5    7    0.19681311E-07  0.33989622E-06
    6    7   -0.28898353E-05  0.41009781E-06
    7    7    0.23020480E-06 -0.27268711E-06
    8    7   -0.14689647E-05 -0.48098012E-06
    9    7    0.94543886E-05  0.63522628E-06
   10    7    0.11495120E-05  0.68935303E-07
   11    7    0.39388323E-05  0.54490597E-07
   12    7   -0.42688148E-05  0.10916014E-06
    1    8    0.14563041E-04 -0.80858343E-09
    2    8    0.19337382E-05 -0.75916735E-07
    3    8    0.89320320E-06 -0.33784272E-06
    4    8   -0.20872803E-05  0.45951569E-07
    5    8   -0.34449867E-05  0.18784778E-06
    6    8   -0.32820289E-06  0.11970407E-06
    7    8    0.11485724E-05 -0.71715826E-07
    8    8    0.23544868E-06  0.26523947E-06
    9    8    0.18244524E-05 -0.18275441E-06
   10    8   -0.95463833E-05 -0.26104332E-06
   11    8   -0.44933055E-05  0.27934795E-06
   12    8   -0.41125441E-05  0.31861121E-06
    1    9   -0.31377335E-05  0.24213395E-06
    2    9   -0.10477010E-05  0.10322400E-06
    3    9   -0.23484381E-05  0.72573135E-07
    4    9    0.20476644E-05  0.62653424E-07
    5    9   -0.45727901E-05 -0.20679625E-06
    6    9   -0.68687778E-06 -0.65522131E-07
    7    9   -0.11221562E-05  0.26777483E-06
    8    9    0.44751373E-05  0.60272181E-07
    9    9   -0.18124667E-05 -0.51839842E-07
   10    9    0.83331914E-06 -0.25129264E-06
   11    9    0.47374600E-05 -0.32143117E-07
   12    9    0.10062407E-05 -0.36616961E-06
    1   10    0.66875584E-06 -0.15782886E-06
    2   10   -0.30696431E-05  0.18426490E-06
    3   10    0.20537658E-05 -0.12044642E-06
    4   10    0.24478950E-05  0.80649847E-07
    5   10    0.13065634E-05  0.82995246E-07
    6   10   -0.50168783E-05 -0.94350210E-07
    7   10    0.48895353E-05  0.50570700E-08
    8   10    0.11300605E-05 -0.21598959E-06
    9   10   -0.85301147E-06 -0.52058410E-06
   10   10   -0.18024281E-05 -0.36525746E-07
   11   10   -0.85474562E-06  0.92473563E-07
   12   10    0.49967791E-05 -0.42587934E-07
    1   11   -0.23639855E-05  0.75590706E-07
    2   11   -0.78307692E-06  0.20703170E-06
    3   11    0.15885865E-06  0.16761682E-07
    4   11   -0.13164843E-05  0.67511681E-07
    5   11    0.20198319E-05 -0.23094525E-06
    6   11    0.22811405E-05  0.16627918E-06
    7   11    0.49044549E-05 -0.25379536E-06
    8   11    0.30530924E-05  0.19840147E-06
    9   11   -0.71012306E-05  0.16276730E-06
   10   11    0.39537298E-05  0.84700196E-07
   11   11    0.18067442E-05  0.54373856E-07
   12   11    0.65919012E-06  0.15249865E-06
    1   12    0.68878751E-06 -0.31286340E-06
    2   12   -0.17340467E-05  0.29820162E-06
    3   12   -0.78280791E-06  0.42384832E-07
    4   12   -0.39914251E-06  0.43278926E-07
    5   12   -0.23861174E-05 -0.35251756E-08
    6   12    0.20802270E-05 -0.89277688E-08
    7   12    0.26589280E-05  0.20024915E-06
    8   12   -0.50173074E-05  0.90652513E-07
    9   12   -0.45898169E-05 -0.33017182E-08
   10   12   -0.74226570E-05  0.12571852E-06
   11   12   -0.10961289E-05 -0.52333774E-07
   12   12    0.19322276E-05  0.65172746E-07

   -5    1    0
    1    1    0.23591978E-05 -0.32974261E-06
    2    1   -0.11890102E-04 -0.48574781E-07
    3    1   -0.30182819E-06  0.13645054E-06
    4    1   -0.25721706E-05  0.37254752E-06
    5    1    0.43755611E-05 -0.10397649E-06
    6    1   -0.21655302E-05 -0.10963632E-06
    7    1    0.56530993E-07  0.25173250E-07
    8    1   -0.68920491E-06  0.50935936E-07
    9    1    0.11362319E-06 -0.31291589E-06
   10    1    0.18302330E-04  0.28291496E-06
   11    1   -0.61829284E-05  0.28202021E-06
   12    1   -0.50019940E-05 -0.31362626E-06
    1    2    0.11247176E-04 -0.21773092E-06
    2    2    0.25793241E-05 -0.37062365E-07
    3    2   -0.23815544E-05  0.31232600E-07
    4    2    0.16009460E-06 -0.13278170E-06
    5    2    0.25856462E-05  0.46882793E-06
    6    2    0.39961734E-05  0.38650812E-07
    7    2   -0.98834664E-07  0.98027375E-07
    8    2    0.67807202E-07 -0.33654975E-06
    9    2   -0.16598207E-04 -0.37618211E-06
[...]
   10    9   -0.38329705E-02 -0.15445768E-03  0.40772382E-02  0.15246972E-02  0.96157980E-04  0.10812518E-04
   11    9   -0.16214775E-02  0.45858491E-04  0.59715094E-02  0.14897580E-03  0.88732709E-04  0.10912004E-05
   12    9   -0.44992500E-02 -0.17280545E-03  0.21902600E-02  0.14130914E-02  0.18213239E-03 -0.20600853E-05
    1   10    0.19555644E-02 -0.64596728E-03  0.19945302E-02  0.53993439E-03  0.12537931E-04 -0.92180087E-07
    2   10    0.19198488E-02  0.30187381E-03 -0.31130411E-02 -0.35458522E-03 -0.10142938E-03  0.22334129E-04
    3   10    0.28506245E-02  0.21847477E-03  0.78704069E-02  0.99773698E-03 -0.24460645E-03  0.98378350E-05
    4   10    0.22478340E-02  0.41206778E-04 -0.14955554E-02  0.13543044E-02 -0.19089089E-03  0.21012127E-06
    5   10   -0.41817490E-02 -0.23165515E-03  0.40018859E-02 -0.15544724E-02  0.65306086E-04  0.92847705E-05
    6   10    0.13765429E-01 -0.11841319E-03 -0.99511162E-02 -0.41776811E-03 -0.17490126E-03 -0.12028549E-05
    7   10   -0.65730139E-02  0.15522536E-03  0.78300676E-02  0.65289969E-03  0.36112283E-04  0.65107290E-05
    8   10   -0.28692679E-02  0.24656968E-03  0.94693891E-02  0.12299382E-02  0.15747060E-03 -0.10094336E-04
    9   10    0.29827668E-02 -0.26176896E-04 -0.43580741E-02  0.17173423E-03 -0.74436536E-04  0.19828749E-04
   10   10    0.38089700E-03  0.72588199E-04  0.12747770E-02 -0.22985365E-03 -0.66802970E-05  0.10909203E-06
   11   10    0.91268273E-02  0.34193144E-03 -0.52661518E-02  0.62645141E-03 -0.18364403E-03  0.53212892E-05
   12   10   -0.10404255E-02  0.13029219E-03  0.75932030E-02  0.78070686E-03  0.12199708E-04 -0.23732995E-05
    1   11    0.45183121E-02  0.46937141E-04 -0.16718634E-02  0.22032390E-03 -0.43732709E-05 -0.19238998E-04
    2   11    0.46956052E-02 -0.13492311E-02 -0.11991876E-02  0.24488013E-04 -0.15621238E-03  0.66657398E-05
    3   11    0.23169208E-02 -0.25036164E-02 -0.69340970E-02  0.46483779E-03  0.28649164E-03 -0.32273603E-05
    4   11   -0.34482784E-02  0.13151729E-04  0.47835974E-02  0.32142266E-04 -0.10593606E-03 -0.70118106E-05
    5   11    0.10592590E-01  0.15809675E-03 -0.14645614E-01 -0.19159733E-03 -0.16256701E-03  0.21661827E-04
    6   11   -0.47079906E-02  0.15361014E-02  0.19089684E-01  0.19857406E-03 -0.10478355E-03 -0.67518432E-06
    7   11    0.10222629E-01 -0.56896855E-03  0.17406541E-02 -0.15850566E-02  0.26100432E-03 -0.45843780E-05
    8   11    0.10681460E-01  0.19183030E-03 -0.53397305E-02 -0.91372450E-04  0.56350457E-04 -0.19542708E-04
    9   11    0.26853267E-02 -0.81558279E-03 -0.14205219E-02 -0.83515531E-03 -0.14941567E-04  0.64605007E-05
   10   11   -0.33657619E-02  0.14870110E-03 -0.55008215E-02 -0.93294476E-04  0.26927876E-04  0.18354651E-04
   11   11   -0.42700677E-03 -0.47177711E-03  0.25085260E-03 -0.28658970E-03 -0.14090909E-03 -0.96513068E-06
   12   11   -0.44454895E-02 -0.13427106E-02  0.85256053E-03 -0.31476016E-03  0.14025815E-04  0.16742558E-04
    1   12   -0.45287559E-02 -0.56660570E-03  0.69699973E-03 -0.59492962E-03  0.15014203E-03 -0.10857858E-04
    2   12    0.19260776E-02  0.28784199E-04 -0.19341990E-02  0.77768394E-03 -0.31240785E-04  0.16427207E-04
    3   12   -0.27917038E-02 -0.40408008E-04  0.15745729E-02 -0.39527170E-04 -0.30560815E-04  0.19302979E-04
    4   12   -0.11282036E-02 -0.10502318E-02  0.35986357E-02 -0.11201645E-03 -0.30043632E-03 -0.20605534E-06
    5   12    0.33491774E-02  0.15010956E-02 -0.20880409E-01  0.23203414E-03 -0.48972857E-05  0.23245948E-05
    6   12    0.10329227E-01 -0.41121988E-03 -0.14862116E-01  0.64265470E-03 -0.65388571E-04 -0.70245666E-05
    7   12    0.11415095E-01  0.97824314E-04 -0.88309813E-02 -0.55633842E-03 -0.55623537E-04  0.10852526E-04
    8   12   -0.98274799E-02 -0.11154123E-02 -0.87275590E-03 -0.85369137E-03 -0.33347212E-03 -0.64141932E-05
    9   12    0.63618824E-02  0.11665642E-02  0.35395333E-02 -0.55179853E-03 -0.21704155E-04  0.18544157E-04
   10   12    0.34834401E-02  0.63372690E-04 -0.43537924E-03  0.12546291E-02  0.23565250E-04  0.91364501E-05
   11   12    0.29545135E-02 -0.23874447E-03  0.75355017E-03 -0.47025819E-04 -0.36453273E-04  0.18938356E-04
   12   12   -0.23863827E-03  0.22793919E-03 -0.33144288E-03  0.27635307E-03 -0.13979436E-03  0.15436571E-04

    7   -3    0
    1    1    0.10270562E-02  0.16223893E-03  0.97219644E-03  0.13353797E-03 -0.50719785E-04 -0.70237386E-06
    2    1   -0.75854109E-03 -0.16150121E-02 -0.15366127E-04  0.10394333E-02 -0.11175761E-03  0.15603532E-04
    3    1   -0.75563333E-02 -0.48224963E-03  0.26624418E-02 -0.14663817E-03  0.56259675E-04  0.19113190E-04
    4    1    0.73147078E-02  0.66658471E-03  0.11393474E-02 -0.10959645E-03  0.20112952E-03  0.42686276E-05
    5    1   -0.85222935E-02 -0.61193534E-03  0.38808111E-02  0.65790449E-03  0.33285762E-03 -0.71836212E-05
    6    1   -0.21750308E-02  0.45239988E-03  0.35139026E-02 -0.11635805E-03 -0.29637967E-03 -0.71438892E-05
    7    1    0.38003799E-02 -0.70518003E-03 -0.17973692E-01  0.30821899E-03  0.15866544E-04  0.10576003E-04
    8    1   -0.22788954E-03  0.13397689E-02  0.52162751E-02 -0.95597941E-03  0.10412714E-03  0.45862595E-05
    9    1    0.30404541E-02 -0.87600616E-03  0.27840901E-02  0.75544034E-03 -0.26736878E-04  0.15013009E-04
   10    1    0.55095068E-02 -0.10999080E-02 -0.86536004E-02  0.31057730E-03  0.11865157E-03 -0.56825877E-06
   11    1    0.28080296E-02 -0.85313986E-04 -0.20716714E-02  0.80472516E-04 -0.58733061E-05  0.17325821E-04
   12    1    0.47667595E-02 -0.79808196E-03 -0.25537180E-02 -0.36055600E-03 -0.93563893E-04  0.83763985E-05
    1    2   -0.25155358E-02 -0.10335977E-03  0.19750759E-02 -0.28131586E-03  0.13417297E-03  0.19286775E-04
    2    2    0.78581707E-03 -0.12556111E-03  0.93981257E-03  0.35374357E-03 -0.19795822E-04 -0.14272630E-04
    3    2    0.95545266E-02 -0.78300457E-03  0.63272790E-03  0.24535486E-03  0.13113673E-03 -0.72550717E-05
    4    2    0.28432042E-02 -0.35594415E-03 -0.13856202E-02  0.42276092E-03 -0.15518572E-03  0.79362989E-05
    5    2    0.11224134E-02  0.71232854E-03 -0.75087774E-02 -0.38048218E-03  0.34513826E-03 -0.19844443E-04
    6    2   -0.90604605E-02  0.64526152E-03  0.43807962E-02 -0.82714368E-04  0.20855112E-03  0.40257754E-05
    7    2   -0.64872248E-03 -0.19514244E-02  0.21177070E-02  0.11730525E-02  0.94907002E-04 -0.28552348E-05
    8    2   -0.39628890E-02 -0.11497791E-02  0.17489487E-01  0.80692344E-03  0.54772559E-04  0.22241759E-04
    9    2   -0.61323487E-02 -0.42974535E-03  0.78842994E-02  0.78869028E-03 -0.13696671E-03 -0.12641541E-04
   10    2    0.34712871E-02  0.16563845E-03  0.47578609E-02 -0.22243696E-03 -0.43862789E-04 -0.18462580E-04
   11    2   -0.59697465E-02 -0.82003597E-03  0.30066762E-02  0.40651706E-03  0.99641972E-04 -0.55248316E-05
   12    2    0.33197775E-02 -0.47352052E-03 -0.37401111E-02  0.45092711E-03 -0.34035865E-04 -0.18521189E-04
    1    3    0.87694900E-03 -0.10567252E-02  0.23844490E-02  0.55106025E-04  0.18947140E-03  0.11313460E-04
    2    3   -0.12990428E-02  0.12747240E-02  0.64754209E-02  0.10363429E-02  0.11799867E-03  0.15601637E-04
    3    3   -0.76013280E-03  0.23674139E-06 -0.43924675E-03  0.22662639E-03  0.19036898E-03 -0.16968281E-05
    4    3   -0.23327050E-02 -0.66920298E-03  0.47181520E-02  0.94987338E-03 -0.39325919E-04 -0.25489943E-05
    5    3   -0.21874922E-02  0.62661087E-03 -0.52504416E-02  0.15141511E-03  0.53678381E-04  0.33276818E-05
    6    3    0.10410813E-01 -0.81620791E-03  0.41235967E-02  0.37656267E-03 -0.17011466E-03  0.17101105E-05
    7    3   -0.19590865E-02 -0.18592028E-03  0.24731359E-02  0.16154577E-03 -0.88247028E-05 -0.22470959E-05
    8    3    0.14724685E-02 -0.10015951E-02  0.91516344E-03  0.73188291E-04 -0.31233338E-04 -0.57405133E-06
    9    3    0.55419044E-02 -0.53784392E-04 -0.11286197E-02  0.20651946E-02 -0.16616962E-03  0.15184845E-04
   10    3    0.37191576E-02  0.63617872E-04 -0.25704275E-02  0.34590226E-03  0.18414289E-04 -0.14425365E-04
   11    3    0.41932037E-02 -0.12686800E-02  0.11872760E-01  0.13624005E-02 -0.23986292E-03  0.10881951E-05
   12    3   -0.21526330E-01  0.12791931E-03  0.73025231E-02  0.24611331E-04  0.29499425E-05 -0.19681411E-04
    1    4   -0.13535316E-02 -0.14518950E-02  0.70552242E-02 -0.15542288E-04 -0.96347172E-05 -0.55077663E-05
    2    4   -0.49353265E-02 -0.14064198E-02 -0.77021880E-03 -0.35865636E-03 -0.17718566E-03  0.13166835E-04
    3    4    0.54841301E-03 -0.25263983E-03 -0.22629239E-02 -0.56578718E-03  0.38818694E-04 -0.16174884E-05
    4    4   -0.37769227E-03 -0.13463926E-03  0.12528471E-03 -0.56468379E-03  0.15828084E-03 -0.15571027E-04
    5    4    0.99539145E-02  0.10445303E-02  0.38995575E-02  0.87182589E-04 -0.12210620E-03  0.64243740E-05
    6    4    0.30621276E-02 -0.21952220E-03  0.61795699E-02  0.49810466E-03 -0.50137114E-04 -0.13370669E-04
    7    4   -0.54517140E-03 -0.17031171E-02 -0.11276913E-02  0.25768797E-03  0.65217125E-04  0.13124262E-04
    8    4   -0.46687538E-02 -0.44010916E-03  0.18610164E-02 -0.44570743E-03 -0.18407527E-04 -0.83831986E-05
    9    4    0.40720460E-02 -0.34487939E-03 -0.15682368E-02 -0.56721362E-03  0.13863755E-03  0.17161416E-04
   10    4   -0.44366085E-02  0.15235850E-03  0.64312819E-04  0.10712366E-02  0.15867216E-03  0.54087774E-05
   11    4   -0.19284545E-01 -0.88693877E-03  0.63409269E-02 -0.70035057E-03 -0.73760705E-04  0.67411515E-05
   12    4   -0.68457490E-02 -0.60163480E-03 -0.10303518E-01  0.65773932E-04  0.22221592E-03 -0.28152727E-05
    1    5    0.63425142E-02  0.79213057E-03  0.20992337E-02 -0.87678716E-03  0.93047677E-04  0.97289324E-05
    2    5   -0.57197434E-02  0.97934040E-03 -0.20623221E-02 -0.53541835E-03 -0.84654939E-04 -0.25145755E-04
    3    5    0.17941191E-02  0.78355386E-03  0.62177567E-04 -0.18860930E-03 -0.12950500E-03  0.18058641E-05
    4    5   -0.18138596E-02  0.38966783E-03  0.38335765E-02  0.48388604E-03 -0.70365645E-04 -0.43359585E-06
    5    5   -0.18818357E-03  0.74311712E-04  0.30598528E-03 -0.46489378E-03  0.12833476E-03 -0.67592974E-05
    6    5   -0.19849315E-02 -0.97645318E-04  0.25203473E-02  0.35167942E-03 -0.33986055E-04  0.92062174E-05
    7    5   -0.66649615E-02  0.80911474E-03 -0.54621391E-02 -0.57635831E-03  0.37655512E-04 -0.82961445E-05
    8    5    0.35827944E-02 -0.15945601E-03 -0.41430844E-02  0.96620703E-03  0.59956746E-04  0.90364700E-05
    9    5   -0.26871199E-02  0.40662311E-04 -0.82400969E-02 -0.28584712E-03  0.18592040E-04 -0.27934930E-04
   10    5   -0.57003310E-02  0.74514296E-03 -0.32846493E-02 -0.26120828E-03  0.23109044E-03 -0.11724104E-04
   11    5   -0.23779032E-03  0.47225659E-03 -0.42064552E-02  0.26053667E-03 -0.39432000E-04 -0.23094567E-04
   12    5   -0.39875431E-03  0.15156379E-02 -0.30657195E-03  0.24288472E-03 -0.34277609E-04 -0.22288494E-06
    1    6    0.85570409E-02  0.26077666E-03  0.22774320E-02 -0.38120859E-03 -0.27007458E-04 -0.44913045E-05
    2    6    0.57772659E-02 -0.98612669E-03  0.31562110E-03 -0.18552336E-04  0.10812173E-03 -0.37834068E-05
    3    6   -0.91772702E-03 -0.37771490E-03  0.30570609E-02 -0.14171932E-04  0.23707495E-04 -0.76457148E-06
    4    6    0.22194543E-03  0.99367735E-03 -0.42101414E-02 -0.13161108E-03  0.10027278E-03 -0.36218306E-06
    5    6    0.51260856E-03 -0.10435257E-02 -0.43584908E-02 -0.14695299E-03  0.14406184E-04  0.78016033E-05
    6    6   -0.61193309E-04  0.93309402E-04  0.22642198E-03  0.48497513E-03  0.15386425E-03 -0.13206046E-04
    7    6    0.42713187E-02 -0.64399420E-03 -0.72633625E-02 -0.62910992E-03  0.78001871E-04  0.82341698E-05
    8    6    0.56744026E-02  0.12209888E-02  0.46186664E-02  0.23042573E-03 -0.67567181E-04 -0.82335021E-05
    9    6    0.32601757E-02  0.35331190E-04  0.38539570E-02 -0.91964418E-03 -0.18894980E-03 -0.13387825E-05
   10    6   -0.32072535E-02  0.57894937E-03 -0.64359046E-02  0.50737823E-03 -0.25969752E-04  0.86558922E-05
   11    6   -0.27653834E-03  0.16657541E-02 -0.14227005E-03  0.14351229E-03 -0.57988018E-04  0.29711618E-05
   12    6   -0.13227575E-02 -0.38074772E-04 -0.63720086E-02  0.19388641E-03  0.42784556E-04  0.12211985E-04
    1    7    0.37949340E-02 -0.14487696E-02  0.11788183E-01 -0.96983162E-04 -0.22656100E-04  0.49578717E-05
    2    7    0.53079780E-02  0.30901302E-03  0.44134135E-02 -0.52808061E-03 -0.97283187E-04  0.65937082E-05
    3    7   -0.47293716E-02  0.21389995E-03  0.40057856E-02 -0.75548811E-03  0.65353194E-04  0.28924262E-05
    4    7    0.32709528E-02  0.67983787E-03  0.23872057E-02 -0.11474667E-02 -0.10856307E-03  0.10635085E-05
    5    7    0.40716562E-02 -0.35867328E-03  0.65690832E-02  0.10088175E-02  0.14063138E-03 -0.55888818E-05
    6    7    0.27415320E-02  0.49432954E-03 -0.10731077E-02  0.24060791E-03  0.18090938E-03  0.78931946E-05
    7    7   -0.72845701E-03 -0.17346002E-03 -0.42920123E-03 -0.34101561E-03 -0.12309974E-04 -0.71709876E-05
    8    7    0.24463330E-02  0.68753766E-03 -0.21798644E-02 -0.10922376E-02  0.74796823E-04  0.75458044E-05
    9    7   -0.12051794E-02 -0.38282509E-03 -0.98945801E-02  0.39969282E-03 -0.25233890E-03  0.68016897E-05
   10    7    0.43641669E-02  0.43745620E-03  0.23434884E-02  0.17204856E-03 -0.27544592E-03 -0.34563615E-05
   11    7   -0.60086104E-02 -0.17332756E-04 -0.19384042E-02 -0.13076214E-02 -0.24197258E-04  0.14421826E-05
   12    7   -0.99122271E-02  0.27229052E-03  0.14180253E-01 -0.30043991E-03 -0.21185412E-03 -0.95079899E-05
    1    8    0.40644097E-02 -0.16917777E-02  0.34652123E-02  0.85086280E-03 -0.45930662E-04 -0.99148454E-05
    2    8   -0.44197096E-02 -0.99792288E-03 -0.12665050E-01 -0.42517298E-03 -0.14555620E-04  0.21692281E-04
    3    8   -0.23006693E-02  0.17798434E-03 -0.23866467E-02 -0.67325097E-03  0.43285465E-04  0.10700922E-05
    4    8   -0.86354220E-02 -0.26783546E-04  0.21244200E-02  0.73133106E-03  0.79431932E-04  0.47840262E-06
    5    8    0.16146073E-02 -0.33653448E-04 -0.30943944E-02 -0.12357711E-02  0.16840397E-03  0.78544517E-05
    6    8   -0.26680990E-02  0.28257453E-03 -0.79513264E-02  0.90844702E-03 -0.16311806E-03 -0.98150570E-05
    7    8   -0.61662769E-02 -0.82136266E-03  0.22168430E-02 -0.55689712E-03 -0.94210066E-04  0.67127722E-05
    8    8   -0.10550917E-02  0.14584079E-03 -0.53282579E-03  0.66420729E-03  0.25157535E-04 -0.99410502E-05
    9    8    0.71626672E-02  0.13554487E-03  0.38475658E-02 -0.10027377E-02 -0.29565325E-03  0.25074829E-04
   10    8    0.33933267E-02  0.36818458E-03  0.96695736E-02  0.36638670E-03  0.35325639E-03  0.11498409E-04
   11    8   -0.10027121E-01  0.47919395E-03  0.11019201E-01  0.17446612E-03 -0.11209428E-03  0.22504303E-04
   12    8    0.47961797E-02 -0.24405535E-03 -0.15080641E-03 -0.70619490E-03 -0.42654987E-04  0.28369067E-05
    1    9    0.28862731E-02  0.78010199E-04 -0.72813101E-02 -0.19433874E-03 -0.49485908E-04  0.17253475E-04
    2    9    0.22275615E-03  0.81560709E-03 -0.92932857E-03 -0.10034555E-02 -0.29686383E-04 -0.19343994E-04
    3    9   -0.52195464E-02  0.55056021E-03  0.92011136E-03 -0.26009393E-02  0.76996465E-04 -0.81026787E-05
    4    9   -0.77392483E-03 -0.39786865E-04  0.61826596E-02 -0.56954030E-03  0.15884968E-05  0.36506983E-05
    5    9    0.18474823E-01  0.29420226E-03 -0.85749963E-02  0.81511882E-03  0.39693137E-04 -0.18450500E-04
    6    9    0.15655400E-01 -0.33927100E-03 -0.35549868E-02  0.18915092E-02 -0.30236525E-03  0.10074639E-04
    7    9   -0.92301862E-02 -0.10585249E-02 -0.49186476E-02 -0.11358434E-02 -0.45051145E-04 -0.72743280E-05
    8    9   -0.11054937E-01 -0.98685256E-03  0.94094777E-02 -0.77720490E-04 -0.97984303E-04  0.18939492E-04
    9    9    0.30612301E-03 -0.11710689E-03 -0.59132724E-03 -0.66759186E-03 -0.13317545E-03 -0.13463278E-04
   10    9   -0.12241553E-02  0.13395437E-05  0.17713351E-02 -0.10591268E-03  0.11319044E-03 -0.19509053E-04
   11    9    0.45613804E-02 -0.49185194E-03  0.69982944E-02 -0.86064397E-03  0.11677622E-03 -0.76831065E-05
   12    9   -0.44325201E-02  0.33421911E-03  0.39744798E-02 -0.13929495E-02  0.19168970E-03 -0.20567714E-04
    1   10    0.12480134E-02  0.60845609E-03  0.19966805E-02 -0.75285987E-03  0.91181473E-05  0.22608862E-05
    2   10   -0.75137567E-03  0.87284639E-03 -0.84385340E-02  0.10886581E-02 -0.51747969E-04 -0.11443651E-04
    3   10   -0.50490310E-03 -0.48185133E-03  0.61051049E-02  0.11753173E-02  0.54157667E-04 -0.17684613E-04
    4   10    0.48966037E-02  0.10879306E-03 -0.14443753E-02 -0.12235192E-02  0.25860881E-04 -0.76928057E-05
    5   10   -0.21529711E-01  0.57578431E-04  0.39789188E-02  0.17851458E-02  0.35054772E-03  0.11822031E-04
    6   10    0.20198027E-01  0.21190485E-03 -0.86927124E-02 -0.74885714E-03  0.11279786E-03  0.24587748E-06
    7   10   -0.15278714E-01  0.31115821E-03  0.89165023E-02  0.22133592E-03  0.41458082E-05 -0.68392689E-05
    8   10    0.59586363E-02 -0.45107216E-03  0.51906794E-02 -0.15248233E-02 -0.28688295E-04 -0.10867730E-04
    9   10    0.93013208E-03 -0.49682310E-04 -0.25379967E-02  0.14132078E-02 -0.84355351E-04 -0.15722593E-04
   10   10    0.75598231E-03 -0.85444132E-04 -0.46065336E-03  0.28713582E-03 -0.14618925E-03 -0.40079716E-06
   11   10    0.11859589E-02 -0.68510282E-04 -0.12503031E-02  0.81898535E-04 -0.18868899E-03 -0.19749096E-04
   12   10    0.37837834E-02 -0.24438281E-03  0.63911782E-02  0.59260712E-03  0.14848653E-03 -0.56499446E-05
    1   11    0.82577481E-03  0.65976612E-04 -0.14063999E-02  0.67046954E-03 -0.11203250E-03  0.65252744E-05
    2   11    0.87354568E-02 -0.12902937E-03 -0.15226560E-02 -0.49724662E-04 -0.22172231E-03 -0.27195726E-05
    3   11    0.60191877E-02  0.12554160E-02 -0.49782272E-02  0.78312323E-04  0.20631784E-03 -0.17981852E-04
    4   11   -0.31474065E-02  0.10714785E-02  0.52347443E-02  0.52394933E-03 -0.30057697E-04 -0.41743665E-05
    5   11    0.51269160E-02 -0.13382578E-02 -0.11306827E-01 -0.96907825E-03  0.31142807E-04 -0.20956529E-05
    6   11   -0.58570738E-02 -0.10185461E-02  0.14800087E-01 -0.29860395E-03 -0.67636728E-04 -0.77349487E-06
    7   11    0.87481379E-02 -0.30044825E-03 -0.14239885E-02  0.13140245E-02  0.24020982E-03 -0.43872191E-05
    8   11    0.17473871E-01  0.11802692E-02 -0.27477605E-03  0.74139362E-03 -0.10068893E-03  0.68614491E-05
    9   11    0.83628725E-03  0.12856506E-03  0.11152748E-01  0.12891312E-04  0.10855929E-03 -0.57118068E-06
   10   11   -0.43418690E-03 -0.66523279E-03  0.16531454E-02 -0.17593738E-03  0.83433728E-04 -0.24973174E-05
   11   11    0.15194398E-03  0.24026237E-03 -0.35127272E-03  0.30458351E-03 -0.11081006E-03  0.34535887E-05
   12   11   -0.18208201E-02  0.37518068E-03 -0.37574480E-02  0.63551474E-04  0.35405296E-04 -0.19523147E-04
    1   12   -0.10298995E-01 -0.15280789E-03 -0.34191784E-03  0.55903519E-03  0.21332695E-03  0.23053977E-07
    2   12    0.53030678E-02 -0.41612267E-03 -0.31676270E-02 -0.36646706E-03 -0.53345252E-04  0.40690507E-05
    3   12    0.11644777E-03 -0.11307553E-02  0.43070436E-02 -0.41027900E-03 -0.76973814E-04 -0.18394998E-04
    4   12   -0.64972512E-02  0.25670936E-03  0.64218464E-02  0.33945077E-03 -0.24935020E-03 -0.95735425E-05
    5   12    0.68258470E-02 -0.45365441E-03 -0.12994391E-01 -0.22554388E-03  0.68380810E-04  0.18322738E-04
    6   12    0.59569835E-02  0.72025676E-03 -0.10408650E-01  0.54325568E-03 -0.12054986E-03  0.13837417E-04
    7   12    0.20189832E-01 -0.67301693E-03  0.20078570E-02 -0.46112374E-03 -0.87458432E-04 -0.11767232E-04
    8   12   -0.10415807E-01  0.54858802E-03  0.12651190E-02  0.22323878E-03 -0.10495792E-03 -0.13274179E-04
    9   12   -0.19190337E-02 -0.14164182E-02  0.18916233E-02  0.37030719E-03 -0.77868292E-04  0.18220829E-05
   10   12   -0.65617669E-03 -0.43905152E-03  0.10044137E-01 -0.23313596E-03  0.27204472E-04 -0.10514379E-05
   11   12    0.30189174E-02 -0.10019509E-02  0.22085076E-02  0.99492749E-04 -0.59093294E-04 -0.12329976E-04
   12   12    0.20007184E-03 -0.77030713E-04 -0.13893683E-02 -0.44150493E-03 -0.11713981E-03 -0.18764222E-04
