 written on 19Jul2020 at 14:14:25 
   134.22225299999999       -1.0362302350000000E-014   0.0000000000000000     
   67.111126499999997        116.23988079999999        0.0000000000000000     
   0.0000000000000000        0.0000000000000000        137.57225299999999     
           4
         581
    1    1    1    1    1    1    1    2    1    1    1    1    1    1    1
    1    2    1    1    1    1    1    1    1    1    1    1    1    2    2
    1    1    1    1    1    1    1    1    1    1    1    1    1    1    1
    1    1    1    1    1    1    1    1    1    1    1    1    1    1    1
    1    1    1    1    1    1    1    1    1    1    1    1    1    1    1
    1    1    1    1    1    1    1    1    1    1    1    1    1    1    1
    1    1    1    1    1    1    1    1    1    1    1    1    1    1    1
    1    1    1    1    1    1    1    1    1    1    1    1    1    1    1
    1    1    1    1    1    1    1    1    1    1    1    1    1    1    1
    1    1    1    1    1    1    1    1    1    1    1    1    1    1    1
    1    1    1    1    1    1    1    1    1    1    1    1    1    1    1
    1    1    1    1    1    1    1    1    1    1    1    1    1    1    1
    1    1    1    1    1    1    1    1    1    1    1    1    1    1    1
    1    1    1    1    1    1    1    1    1    1    1    1    1    1    1
    1    1    1    1    1    1    1    1    1    1    1    1    1    1    1
    1    1    1    1    1    1    1    1    1    1    1    1    1    1    1
    1    1    1    1    1    1    1    1    1    1    1    1    1    1    1
    1    1    1    1    1    1    1    1    1    1    1    1    1    1    1
    1    1    1    1    1    1    1    1    2    1    1    1    1    1    1
    1    1    1    1    1    1    1    1    1    1    1    1    1    1    1
    1    1    2    1    1    1    1    1    1    1    1    1    1    1    1
    1    1    1    1    1    1    1    1    1    1    1    1    1    1    1
    1    1    1    1    1    1    1    1    1    1    1    1    1    1    1
    1    1    1    1    1    1    1    1    1    1    1    1    1    1    1
    1    1    1    1    1    1    1    1    1    1    1    1    1    1    1
    1    1    1    1    1    1    1    1    1    1    1    1    1    1    1
    1    1    1    1    1    1    1    1    1    1    1    1    1    1    1
    1    1    1    1    1    1    1    1    1    1    1    1    1    1    1
    1    1    1    1    1    1    1    1    1    1    1    1    1    1    1
    1    1    1    1    1    1    1    1    1    1    1    1    1    1    1
    1    1    1    1    1    1    1    1    1    1    1    1    1    1    1
    1    1    1    1    1    1    1    1    1    1    1    1    1    1    1
    1    1    1    1    1    1    1    1    1    1    1    1    1    1    1
    1    1    1    1    1    1    1    1    1    1    1    1    1    1    1
    1    1    1    1    1    1    1    1    1    1    1    1    1    1    1
    1    1    1    1    1    1    1    1    1    1    1    1    1    1    1
    1    1    1    1    1    1    1    1    1    1    1    2    2    1    1
    1    1    1    1    1    1    1    1    1    2    1    1    1    1    1
    1    1    1    2    1    1    1    1    1    1    1

  -15    7    0
    1    1   -0.19449726E-07 -0.32223799E-09
    2    1   -0.41888933E-08  0.21543606E-07
    3    1   -0.10504121E-07  0.53136516E-13
    4    1   -0.63939460E-09 -0.24646046E-09
    1    2    0.40202454E-08 -0.22985165E-07
    2    2   -0.17915691E-07  0.62553676E-09
    3    2    0.63927254E-09 -0.24608674E-09
    4    2   -0.10386388E-07 -0.63760713E-13
    1    3   -0.13720879E-07  0.24034716E-09
    2    3    0.19224961E-08  0.13886190E-09
    3    3   -0.18244543E-07 -0.77548719E-09
    4    3   -0.40487254E-08 -0.22921917E-07
    1    4   -0.23692415E-09  0.13886359E-09
    2    4   -0.12747674E-07 -0.24036089E-09
    3    4    0.38236991E-08  0.21605476E-07
    4    4   -0.19104826E-07  0.47278455E-09

  -15    8    0
    1    1   -0.18792536E-07 -0.73064989E-09
    2    1   -0.43642651E-08  0.22053023E-07
    3    1   -0.13700732E-07 -0.15882552E-09
    4    1   -0.98513724E-09 -0.91440358E-10
    1    2    0.35069185E-08 -0.22475669E-07
    2    2   -0.18557384E-07  0.10334931E-08
    3    2    0.10682472E-08 -0.91638761E-10
    4    2   -0.13652785E-07  0.15876128E-09
    1    3   -0.11405553E-07  0.59013161E-09
    2    3    0.25120271E-08  0.24935365E-08
    3    3   -0.18225552E-07 -0.10124063E-08
    4    3   -0.34831210E-08 -0.22314697E-07
    1    4   -0.33958642E-09 -0.26646282E-08
    2    4   -0.11788821E-07 -0.36061911E-09
    3    4    0.47271108E-08  0.22214597E-07
    4    4   -0.19138650E-07  0.70996560E-09

  -14    5    0
    1    1   -0.18971478E-07  0.10698940E-07
    2    1    0.11185242E-07  0.27801463E-07
    3    1   -0.12481039E-07 -0.27242317E-12
    4    1    0.38649076E-08 -0.50123342E-09
    1    2   -0.12050657E-07 -0.29514710E-07
    2    2   -0.17505505E-07  0.12557097E-07
    3    2   -0.38646983E-08 -0.49840804E-09
    4    2   -0.10673342E-07 -0.25684146E-12
    1    3   -0.15639861E-07  0.37485172E-08
    2    3    0.50324087E-08 -0.42634463E-08
    3    3   -0.16379807E-07 -0.12274411E-07
    4    3    0.12910033E-07 -0.29581097E-07
    1    4   -0.27235724E-08  0.55474587E-08
    2    4   -0.12738806E-07  0.25426691E-08
    3    4   -0.12799285E-07  0.27737646E-07
    4    4   -0.16069704E-07 -0.10981234E-07

  -14    6    0
    1    1   -0.22128900E-07  0.50276318E-08
    2    1    0.31496248E-08  0.30606228E-07
    3    1   -0.12928497E-07  0.18410356E-08
    4    1    0.17887697E-08 -0.11501734E-08
    1    2   -0.36825509E-08 -0.31971376E-07
    2    2   -0.21079172E-07  0.64183491E-08
    3    2   -0.13522782E-08  0.10882554E-09
    4    2   -0.11850220E-07  0.23327411E-08
    1    3   -0.16746523E-07  0.23719674E-08
    2    3    0.37690624E-08  0.13624910E-09
    3    3   -0.19961636E-07 -0.64274893E-08
    4    3    0.52397432E-08 -0.32030981E-07
    1    4   -0.75345906E-09  0.83140744E-09
    2    4   -0.14113815E-07  0.10324544E-08
    3    4   -0.35674214E-08  0.30543832E-07
    4    4   -0.20632879E-07 -0.50178900E-08

  -14    7    0
    1    1   -0.22777096E-07  0.15405133E-08
    2    1    0.58699578E-09  0.31108896E-07
    3    1   -0.13502296E-07  0.14064110E-08
    4    1    0.72397107E-09 -0.33333092E-08
    1    2   -0.88892365E-09 -0.32750777E-07
    2    2   -0.21600734E-07  0.55255502E-08
    3    2   -0.13171261E-09  0.28111030E-08
    4    2   -0.13065186E-07  0.20551142E-08
    1    3   -0.16077748E-07 -0.94864263E-09
    2    3    0.41551592E-08  0.68593339E-09
    3    3   -0.21764185E-07 -0.52401472E-08
    4    3    0.11712645E-08 -0.33245078E-07
    1    4   -0.36736352E-09 -0.97356765E-11
    2    4   -0.14782526E-07 -0.24564596E-08
    3    4   -0.30347871E-09  0.30615000E-07
    4    4   -0.22613857E-07 -0.18256783E-08

  -14    8    0
    1    1   -0.21189261E-07  0.47264355E-08
    2    1    0.45319752E-08  0.31049371E-07
    3    1   -0.13431052E-07 -0.21191254E-08
    4    1    0.76493116E-09  0.29223235E-08
    1    2   -0.42773548E-08 -0.31526417E-07
    2    2   -0.19405462E-07  0.67190887E-08
    3    2   -0.90267317E-10 -0.32230180E-08
    4    2   -0.13136645E-07 -0.13424710E-08
    1    3   -0.14463659E-07 -0.22883950E-08
    2    3    0.57116054E-08  0.51061992E-08
    3    3   -0.21110728E-07 -0.66617612E-08
    4    3    0.37369781E-08 -0.31550368E-07
    1    4   -0.20449461E-08 -0.47035152E-08
    2    4   -0.13914329E-07 -0.40034065E-08
    3    4   -0.30942431E-08  0.31028625E-07
    4    4   -0.22097065E-07 -0.47841705E-08

  -14    9    0
    1    1   -0.16195457E-07  0.10506882E-07
    2    1    0.13016969E-07  0.28559663E-07
    3    1   -0.12308646E-07 -0.26610661E-08
    4    1    0.21465512E-08  0.67668637E-09
    1    2   -0.12693082E-07 -0.28757817E-07
    2    2   -0.16254488E-07  0.12749924E-07
    3    2   -0.99472469E-09 -0.58190398E-09
    4    2   -0.12469983E-07 -0.15133347E-08
    1    3   -0.10274593E-07 -0.14055194E-08
    2    3    0.71263831E-08  0.55300432E-08
    3    3   -0.17496947E-07 -0.12834894E-07
    4    3    0.12035952E-07 -0.29033929E-07
    1    4   -0.37777490E-08 -0.54875752E-08
    2    4   -0.10428891E-07 -0.32681341E-08
    3    4   -0.11199179E-07  0.28281382E-07
    4    4   -0.18979418E-07 -0.10422183E-07

  -13    2    0
    1    1    0.10221124E-07  0.25928844E-07
    2    1    0.31770759E-07 -0.18364512E-07
    3    1    0.84503802E-08  0.35538267E-08
    4    1    0.78228445E-08  0.10641263E-07
    1    2   -0.31587043E-07  0.17210641E-07
    2    2    0.10272128E-07  0.25487118E-07
    3    2   -0.91979057E-08 -0.99269168E-08
    4    2    0.51369652E-08  0.28748918E-08
    1    3    0.17384893E-08 -0.11316484E-08
    2    3    0.88365830E-08 -0.11385245E-07
    3    3    0.10219347E-07 -0.25929350E-07
    4    3    0.31587241E-07  0.17210314E-07
    1    4   -0.74913944E-08  0.12527950E-07
    2    4    0.29781080E-08 -0.14843247E-08
    3    4   -0.31771102E-07 -0.18364219E-07
    4    4    0.10271119E-07 -0.25486527E-07

  -13    3    0
    1    1   -0.59972326E-08  0.27250790E-07
    2    1    0.34354534E-07  0.58479278E-08
    3    1   -0.15029899E-08  0.13717162E-12
    4    1    0.84796981E-08  0.12593573E-09
    1    2   -0.33527968E-07 -0.69147024E-08
    2    2   -0.38172939E-08  0.27568835E-07
    3    2   -0.84800962E-08  0.12569412E-09
    4    2   -0.27667559E-08  0.14698984E-12
    1    3   -0.83130134E-08  0.28707195E-08
    2    3    0.10993966E-07 -0.19132813E-07
    3    3    0.20164083E-08 -0.27730406E-07
    4    3    0.34312052E-07 -0.68573673E-08
    1    4   -0.73548174E-08  0.20965017E-07
    2    4   -0.47339654E-08  0.12729847E-08
    3    4   -0.33341814E-07  0.58887397E-08
    4    4    0.12553148E-08 -0.27089446E-07

  -13    4    0
    1    1   -0.19624830E-07  0.23355202E-07
    2    1    0.27824471E-07  0.27297117E-07
    3    1   -0.93912587E-08  0.98355586E-09
    4    1    0.77330299E-08 -0.91983357E-08
    1    2   -0.29252537E-07 -0.29857452E-07
    2    2   -0.16337944E-07  0.24010083E-07
    3    2   -0.67836730E-08  0.86178273E-08
    4    2   -0.85025106E-08  0.14457229E-08
    1    3   -0.17906079E-07  0.67455349E-08
    2    3    0.10798883E-07 -0.17656561E-07
    3    3   -0.82092559E-08 -0.23834965E-07
    4    3    0.31673481E-07 -0.29642203E-07
    1    4   -0.58714865E-08  0.19719352E-07
    2    4   -0.13230549E-07  0.40329117E-08
    3    4   -0.29465148E-07  0.27505678E-07
    4    4   -0.94323781E-08 -0.23529847E-07

  -13    5    0
    1    1   -0.28402654E-07  0.16144634E-07
    2    1    0.19263172E-07  0.43317312E-07
    3    1   -0.14622194E-07  0.34448173E-08
    4    1    0.54201679E-08 -0.10753844E-07
    1    2   -0.20398254E-07 -0.45893354E-07
    2    2   -0.24825012E-07  0.18627723E-07
    3    2   -0.39516096E-08  0.97823278E-08
    4    2   -0.13170212E-07  0.47297550E-08
    1    3   -0.23875161E-07  0.66564632E-08
    2    3    0.10102588E-07 -0.90907381E-08
    3    3   -0.18366967E-07 -0.18283831E-07
    4    3    0.24253409E-07 -0.46221356E-07
    1    4   -0.37650405E-08  0.11125924E-07
    2    4   -0.18767505E-07  0.32021133E-08
    3    4   -0.22072239E-07  0.42968537E-07
    4    4   -0.20629218E-07 -0.16488228E-07

  -13    6    0
    1    1   -0.32028957E-07  0.11307806E-07
    2    1    0.13161557E-07  0.51861677E-07
    3    1   -0.17911410E-07  0.32710130E-08
    4    1    0.36086955E-08 -0.76275158E-08
    1    2   -0.15373957E-07 -0.54516018E-07
    2    2   -0.27677549E-07  0.14113534E-07
    3    2   -0.17053000E-08  0.64664875E-08
    4    2   -0.16538954E-07  0.46743757E-08
    1    3   -0.25969393E-07  0.17147289E-08
    2    3    0.96979775E-08  0.99081164E-09
    3    3   -0.25832475E-07 -0.13850216E-07
    4    3    0.16996636E-07 -0.54973790E-07
    1    4   -0.27539688E-08  0.98923087E-09
    2    4   -0.21960170E-07 -0.17145885E-08
    3    4   -0.14624685E-07  0.51393041E-07
    4    4   -0.28545885E-07 -0.11570603E-07

  -13    7    0
    1    1   -0.28894324E-07  0.10590416E-07
    2    1    0.15229916E-07  0.53090911E-07
    3    1   -0.17684834E-07 -0.76139222E-09
    4    1    0.26721624E-08 -0.43904277E-09
    1    2   -0.16393902E-07 -0.53274763E-07
    2    2   -0.25483356E-07  0.14831320E-07
    3    2   -0.10624427E-08 -0.43986252E-09
    4    2   -0.16755229E-07  0.76126775E-09
    1    3   -0.22788111E-07 -0.31845266E-08
    2    3    0.10729659E-07  0.11095968E-07
    3    3   -0.27807652E-07 -0.14561266E-07
    4    3    0.15597769E-07 -0.53739682E-07
    1    4   -0.31378304E-08 -0.91216339E-08
    2    4   -0.19853265E-07 -0.66741397E-08
    3    4   -0.12935526E-07  0.52637150E-07
    4    4   -0.31899457E-07 -0.10859742E-07

  -13    8    0
    1    1   -0.21007379E-07  0.15528807E-07
    2    1    0.22730498E-07  0.44628732E-07
    3    1   -0.17706033E-07 -0.48263851E-08
    4    1    0.37271033E-08  0.67301257E-08
    1    2   -0.23598846E-07 -0.44557172E-07
    2    2   -0.17987374E-07  0.19243634E-07
    3    2   -0.15868940E-08 -0.73647071E-08
    4    2   -0.16743972E-07 -0.31189727E-08
    1    3   -0.16532466E-07 -0.38184643E-08
    2    3    0.11591392E-07  0.19346205E-07
    3    3   -0.25227780E-07 -0.19122081E-07
    4    3    0.21094615E-07 -0.45034983E-07
    1    4   -0.50785625E-08 -0.18028238E-07
    2    4   -0.14603109E-07 -0.69610724E-08
    3    4   -0.18564088E-07  0.44172618E-07
    4    4   -0.27999460E-07 -0.15649561E-07

  -13    9    0
    1    1   -0.10083026E-07  0.22681561E-07
    2    1    0.30593389E-07  0.28974355E-07
    3    1   -0.14168372E-07 -0.48298307E-08
    4    1    0.56820171E-08  0.99538657E-08
    1    2   -0.30548609E-07 -0.28170241E-07
    2    2   -0.75587470E-08  0.24684298E-07
    3    2   -0.36903500E-08 -0.10580917E-07
    4    2   -0.13622469E-07 -0.33454592E-08
    1    3   -0.72038114E-08 -0.87984642E-09
    2    3    0.11634399E-07  0.20280496E-07
    3    3   -0.16540362E-07 -0.24955109E-07
    4    3    0.29604957E-07 -0.28219519E-07
    1    4   -0.67148689E-08 -0.19812726E-07
    2    4   -0.58421084E-08 -0.32654144E-08
    3    4   -0.27472469E-07  0.28932515E-07
    4    4   -0.19420811E-07 -0.22410391E-07

  -13   10    0
    1    1    0.10257394E-08  0.26831354E-07
    2    1    0.33741315E-07  0.63379820E-08
    3    1   -0.91357638E-08 -0.15821295E-08
    4    1    0.78806654E-08  0.88521008E-08
    1    2   -0.33915344E-07 -0.64084610E-08
    2    2    0.22465050E-08  0.27990229E-07
    3    2   -0.66359108E-08 -0.89617914E-08
    4    2   -0.87581417E-08 -0.84803457E-09
    1    3    0.20857080E-08  0.18912655E-08
    2    3    0.90378482E-08  0.11824421E-07
    3    3   -0.47199474E-08 -0.27951803E-07
    4    3    0.35092970E-07 -0.62520007E-08
    1    4   -0.72912554E-08 -0.12089701E-07
    2    4    0.26315129E-08  0.72528078E-09
    3    4   -0.32791849E-07  0.65102417E-08
    4    4   -0.50941941E-08 -0.26868996E-07

  -12    0    0
    1    1    0.24009507E-07  0.15234079E-13
    2    1    0.76753677E-09 -0.49663655E-07
    3    1    0.17876911E-07  0.66080476E-08
    4    1   -0.82997229E-09 -0.38290811E-08
    1    2    0.76923600E-09  0.49663576E-07
    2    2    0.23629968E-07 -0.15234125E-13
    3    2    0.77444807E-09  0.46303355E-08
    4    2    0.13696416E-07  0.64610486E-08
    1    3    0.17874543E-07 -0.66020091E-08
    2    3    0.77434396E-09 -0.46236360E-08
    3    3    0.24009909E-07  0.15234121E-13
    4    3   -0.76748411E-09  0.49663603E-07
    1    4   -0.82984524E-09  0.38225310E-08
    2    4    0.13694697E-07 -0.64551701E-08
    3    4   -0.76918334E-09 -0.49663524E-07
    4    4    0.23630485E-07 -0.15234135E-13

  -12    1    0
    1    1    0.17909843E-07  0.17053644E-07
    2    1    0.23993000E-07 -0.43408462E-07
    3    1    0.15056250E-07  0.22911051E-11
    4    1    0.41483280E-08  0.59107422E-09
    1    2   -0.21740095E-07  0.43007570E-07
    2    2    0.18734939E-07  0.17106446E-07
    3    2   -0.41485717E-08  0.58641051E-09
    4    2    0.10765646E-07  0.23970992E-11
    1    3    0.13592109E-07 -0.95985972E-08
    2    3    0.79649877E-08 -0.23113461E-07
    3    3    0.23644130E-07 -0.17372682E-07
    4    3    0.18612529E-07  0.42957065E-07
    1    4   -0.63091882E-08  0.23392745E-07
    2    4    0.11545272E-07 -0.10037014E-07
    3    4   -0.20609439E-07 -0.43485553E-07
    4    4    0.22539673E-07 -0.16787214E-07

  -12    2    0
    1    1    0.18975664E-08  0.31887223E-07
    2    1    0.42046201E-07 -0.22461373E-07
    3    1    0.84507775E-08 -0.35516020E-08
    4    1    0.91966453E-08 -0.99203940E-08
    1    2   -0.41562029E-07  0.21673211E-07
    2    2    0.50191257E-08  0.30929063E-07
    3    2   -0.78229498E-08  0.10634638E-07
    4    2    0.51373740E-08 -0.28728907E-08
    1    3    0.25638116E-08 -0.48218662E-08
    2    3    0.14412605E-07 -0.44181627E-07
    3    3    0.20846030E-07 -0.31398478E-07
    4    3    0.38713754E-07  0.21639314E-07
    1    4   -0.95499152E-08  0.46410577E-07
    2    4    0.45085993E-08 -0.66365060E-08
    3    4   -0.38345488E-07 -0.22562483E-07
    4    4    0.17119680E-07 -0.31418412E-07

  -12    3    0
    1    1   -0.19016021E-07  0.38764556E-07
    2    1    0.52659204E-07  0.12421928E-07
    3    1   -0.27267939E-08 -0.17644299E-08
    4    1    0.11411322E-07 -0.25351146E-07
    1    2   -0.52335627E-07 -0.14146675E-07
    2    2   -0.13042987E-07  0.39718837E-07
    3    2   -0.86475456E-08  0.25350531E-07
    4    2   -0.39626191E-08 -0.69658661E-09
    1    3   -0.14199278E-07  0.34384968E-08
    2    3    0.19658575E-07 -0.52348332E-07
    3    3    0.10602912E-07 -0.40205951E-07
    4    3    0.53215553E-07 -0.14381175E-07
    1    4   -0.10564831E-07  0.56201533E-07
    2    4   -0.83446315E-08 -0.62500522E-09
    3    4   -0.51516790E-07  0.12120921E-07
    4    4    0.58264651E-08 -0.38276945E-07

  -12    4    0
    1    1   -0.36982528E-07  0.38237823E-07
    2    1    0.52479280E-07  0.53029358E-07
    3    1   -0.13923184E-07  0.30592571E-08
    4    1    0.11987584E-07 -0.32890546E-07
    1    2   -0.53657599E-07 -0.55611187E-07
    2    2   -0.29557429E-07  0.38577474E-07
    3    2   -0.79294435E-08  0.31874212E-07
    4    2   -0.13111732E-07  0.52254270E-08
    1    3   -0.31977145E-07  0.97679166E-08
    2    3    0.21330110E-07 -0.41171386E-07
    3    3   -0.65923947E-08 -0.38900029E-07
    4    3    0.58058041E-07 -0.55685529E-07
    1    4   -0.92390282E-08  0.45341017E-07
    2    4   -0.23000936E-07  0.38958774E-08
    3    4   -0.54490541E-07  0.52902507E-07
    4    4   -0.11865632E-07 -0.37915024E-07

  -12    5    0
    1    1   -0.46310712E-07  0.31521746E-07
    2    1    0.47259503E-07  0.85600317E-07
    3    1   -0.23733211E-07  0.48584047E-08
    4    1    0.10187688E-07 -0.27402630E-07
    1    2   -0.49319309E-07 -0.88390934E-07
    2    2   -0.38776191E-07  0.34635873E-07
    3    2   -0.52354610E-08  0.25745614E-07
    4    2   -0.21713432E-07  0.77481981E-08
    1    3   -0.42467762E-07  0.67469424E-08
    2    3    0.21848379E-07 -0.13531690E-07
    3    3   -0.24736047E-07 -0.34791899E-07
    4    3    0.53816945E-07 -0.89093605E-07
    1    4   -0.68904975E-08  0.18181886E-07
    2    4   -0.32878318E-07 -0.27532515E-09
    3    4   -0.49502843E-07  0.84834765E-07
    4    4   -0.30692391E-07 -0.31365195E-07

  -12    6    0
    1    1   -0.44261724E-07  0.28276779E-07
    2    1    0.45546225E-07  0.98061383E-07
    3    1   -0.28167436E-07  0.20182035E-08
    4    1    0.87358489E-08 -0.10939479E-07
    1    2   -0.48108900E-07 -0.99418957E-07
    2    2   -0.36581408E-07  0.31773312E-07
    3    2   -0.34865962E-08  0.93260927E-08
    4    2   -0.25590387E-07  0.50599693E-08
    1    3   -0.41752613E-07  0.53315148E-09
    2    3    0.22260884E-07  0.17736369E-07
    3    3   -0.37392092E-07 -0.31487064E-07
    4    3    0.49511358E-07 -0.99915179E-07
    1    4   -0.64777671E-08 -0.13979866E-07
    2    4   -0.33592946E-07 -0.70048556E-08
    3    4   -0.44141228E-07  0.97565783E-07
    4    4   -0.43451421E-07 -0.28563182E-07

  -12    7    0
    1    1   -0.31070844E-07  0.30377885E-07
    2    1    0.50159708E-07  0.86542980E-07
    3    1   -0.28507459E-07 -0.49981025E-08
    4    1    0.85393761E-08  0.92204541E-08
    1    2   -0.53161077E-07 -0.87380935E-07
    2    2   -0.24356587E-07  0.35779492E-07
    3    2   -0.36831183E-08 -0.11047912E-07
    4    2   -0.25249904E-07 -0.20801010E-08
    1    3   -0.30479851E-07 -0.35597031E-08
    2    3    0.22193564E-07  0.44757949E-07
    3    3   -0.39768297E-07 -0.35065126E-07
    4    3    0.51035428E-07 -0.87644919E-07
    1    4   -0.83750428E-08 -0.41757642E-07
    2    4   -0.24496779E-07 -0.10106307E-07
    3    4   -0.45540233E-07  0.86343150E-07
    4    4   -0.45319259E-07 -0.31091329E-07

  -12    8    0
    1    1   -0.12091473E-07  0.36955746E-07
    2    1    0.54884170E-07  0.54559851E-07
    3    1   -0.24362010E-07 -0.77441758E-08
    4    1    0.98239592E-08  0.25738292E-07
    1    2   -0.57667221E-07 -0.54021254E-07
    2    2   -0.63654292E-08  0.39858508E-07
    3    2   -0.55985609E-08 -0.27412389E-07
    4    2   -0.21083184E-07 -0.48640622E-08
    1    3   -0.13744296E-07  0.12757227E-08
    2    3    0.19920381E-07  0.55068649E-07
    3    3   -0.30902396E-07 -0.39610354E-07
    4    3    0.55988035E-07 -0.53818914E-07
    1    4   -0.10303226E-07 -0.53476101E-07
    2    4   -0.87966344E-08 -0.40925950E-08
    3    4   -0.50146926E-07  0.54815577E-07
    4    4   -0.35635366E-07 -0.37204535E-07

  -12    9    0
    1    1    0.62844838E-08  0.37782288E-07
    2    1    0.50725667E-07  0.12978466E-07
    3    1   -0.15071068E-07 -0.51250570E-08
    4    1    0.11324792E-07  0.31697404E-07
    1    2   -0.54012753E-07 -0.13518779E-07
    2    2    0.10144126E-07  0.40704022E-07
    3    2   -0.85927412E-08 -0.33065348E-07
    4    2   -0.11962462E-07 -0.31615612E-08
    1    3    0.19174813E-08  0.71465329E-08
    2    3    0.14039870E-07  0.45521054E-07
    3    3   -0.14674317E-07 -0.40228165E-07
    4    3    0.55167097E-07 -0.13263524E-07
    1    4   -0.99238892E-08 -0.45063999E-07
    2    4    0.51562630E-08  0.43092353E-08
    3    4   -0.49832714E-07  0.13299612E-07
    4    4   -0.17380990E-07 -0.38257616E-07

  -12   10    0
    1    1    0.17892508E-07  0.31015685E-07
    2    1    0.37012670E-07 -0.21860043E-07
    3    1   -0.48501734E-08  0.96264791E-09
    4    1    0.10186167E-07  0.24887292E-07
    1    2   -0.40056130E-07  0.22339477E-07
    2    2    0.20074642E-07  0.31804484E-07
    3    2   -0.98738429E-08 -0.25811591E-07
    4    2   -0.18389253E-08  0.14972881E-08
    1    3    0.11340112E-07  0.10050237E-07
    2    3    0.66655599E-08  0.23378305E-07
    3    3    0.40300028E-08 -0.31511260E-07
    4    3    0.43281449E-07  0.22678347E-07
    1    4   -0.76098292E-08 -0.23138216E-07
    2    4    0.13797836E-07  0.95891768E-08
    3    4   -0.40335589E-07 -0.21453882E-07
    4    4    0.28883266E-08 -0.31308383E-07

  -12   11    0
    1    1    0.23682264E-07  0.16705640E-07
    2    1    0.18634222E-07 -0.43342975E-07
    3    1    0.53703354E-08  0.33530414E-08
    4    1    0.74188955E-08  0.98079094E-08
    1    2   -0.20589605E-07  0.43100320E-07
    2    2    0.22505170E-07  0.17455832E-07
    3    2   -0.96011152E-08 -0.10752720E-07
    4    2    0.82172370E-08  0.30740983E-08
    1    3    0.14764266E-07  0.61478031E-08
    2    3   -0.10218165E-08  0.43626751E-08
    3    3    0.17552586E-07 -0.17267448E-07
    4    3    0.23789459E-07  0.43286294E-07
    1    4   -0.26263303E-08 -0.40894941E-08
    2    4    0.16806462E-07  0.69151509E-08
    3    4   -0.21948170E-07 -0.43131361E-07
    4    4    0.19090892E-07 -0.16894199E-07

  -12   12    0
    1    1    0.24390544E-07  0.32770158E-15
    2    1   -0.54860590E-09 -0.49662801E-07
    3    1    0.11838497E-07  0.50965766E-09
    4    1    0.22907384E-08 -0.29460463E-09
    1    2   -0.54860776E-09  0.49662802E-07
    2    2    0.23249326E-07 -0.32740465E-15
    3    2   -0.60065242E-08 -0.29412395E-09
    4    2    0.13983630E-07 -0.51001316E-09
    1    3    0.11838500E-07 -0.50966469E-09
    2    3   -0.60065258E-08  0.29412911E-09
    3    3    0.23059481E-07  0.44271220E-15
    4    3    0.21984144E-09  0.49663911E-07
    1    4    0.22907368E-08  0.29459716E-09
    2    4    0.13983627E-07  0.51000745E-09
    3    4    0.21984330E-09 -0.49663910E-07
    4    4    0.24580185E-07 -0.44271287E-15

  -11   -2    0
    1    1    0.10219487E-07 -0.25929374E-07
    2    1   -0.31587368E-07 -0.17210590E-07
    3    1    0.17384070E-08  0.11318479E-08
    4    1   -0.74914542E-08 -0.12529253E-07
    1    2    0.31771150E-07  0.18364560E-07
    2    2    0.10271271E-07 -0.25486588E-07
    3    2    0.88374508E-08  0.11386519E-07
    4    2    0.29782226E-08  0.14847761E-08
    1    3    0.84508119E-08 -0.35520579E-08
    2    3   -0.91965798E-08  0.99210383E-08
    3    3    0.10220985E-07  0.25928821E-07
    4    3   -0.31770710E-07  0.18364172E-07
    1    4    0.78230090E-08 -0.10635320E-07
    2    4    0.51372915E-08 -0.28732654E-08
    3    4    0.31586915E-07 -0.17210365E-07
    4    4    0.10271976E-07  0.25487056E-07

  -11   -1    0
    1    1    0.23644228E-07 -0.17372749E-07
    2    1   -0.18612904E-07 -0.42956277E-07
    3    1    0.11435953E-07  0.14250186E-11
    4    1   -0.56659759E-08  0.12321610E-10
    1    2    0.20609911E-07  0.43484722E-07
    2    2    0.22539942E-07 -0.16787143E-07
    3    2    0.56661278E-08  0.20493427E-10
    4    2    0.97020614E-08  0.13286056E-11
    1    3    0.19692338E-07 -0.14370991E-07
    2    3   -0.63429998E-08  0.87891575E-08
    3    3    0.17910132E-07  0.17053328E-07
    4    3   -0.23992341E-07  0.43408357E-07
    1    4    0.43285385E-08 -0.10207467E-07
    2    4    0.13955782E-07 -0.13285884E-07
    3    4    0.21739659E-07 -0.43007491E-07
    4    4    0.18735155E-07  0.17106056E-07

  -11    0    0
    1    1    0.27894598E-07  0.45121900E-09
    2    1    0.56362743E-08 -0.63809872E-07
    3    1    0.17874297E-07 -0.66022717E-08
    4    1   -0.77485376E-09  0.46236655E-08
    1    2   -0.38599602E-08  0.63994046E-07
    2    2    0.27230828E-07 -0.45071963E-09
    3    2    0.83003510E-09 -0.38227989E-08
    4    2    0.13694621E-07 -0.64554836E-08
    1    3    0.28127083E-07 -0.25807924E-07
    2    3    0.96516631E-09 -0.16222235E-07
    3    3    0.27894852E-07  0.45077666E-09
    4    3   -0.56358288E-08  0.63809663E-07
    1    4   -0.17069525E-08  0.15280891E-07
    2    4    0.21514262E-07 -0.25127093E-07
    3    4    0.38595253E-08 -0.63993926E-07
    4    4    0.27231205E-07 -0.45123934E-09

  -11    1    0
    1    1    0.16255944E-07  0.25464483E-07
    2    1    0.41050670E-07 -0.67266675E-07
    3    1    0.19692205E-07 -0.14371098E-07
    4    1    0.63431716E-08 -0.87894905E-08
    1    2   -0.38012124E-07  0.67091429E-07
    2    2    0.19558791E-07  0.24576855E-07
    3    2   -0.43287817E-08  0.10207439E-07
    4    2    0.13956099E-07 -0.13285824E-07
    1    3    0.25772162E-07 -0.29985244E-07
    2    3    0.13356091E-07 -0.63644933E-07
    3    3    0.38029074E-07 -0.25116748E-07
    4    3    0.25840582E-07  0.66129383E-07
    1    4   -0.92896722E-08  0.65257252E-07
    2    4    0.22706213E-07 -0.30913333E-07
    3    4   -0.27667100E-07 -0.68314497E-07
    4    4    0.33766521E-07 -0.24925311E-07

  -11    2    0
    1    1   -0.11678898E-07  0.53734445E-07
    2    1    0.79392905E-07 -0.36854118E-07
    3    1    0.13171028E-07 -0.15257055E-07
    4    1    0.14938827E-07 -0.38854057E-07
    1    2   -0.76652862E-07  0.35073700E-07
    2    2   -0.20676502E-08  0.50530038E-07
    3    2   -0.93671745E-08  0.39864537E-07
    4    2    0.77366947E-08 -0.13278837E-07
    1    3    0.56743488E-08 -0.19719152E-07
    2    3    0.28025299E-07 -0.11067927E-06
    3    3    0.40399717E-07 -0.51529047E-07
    4    3    0.67544822E-07  0.34326511E-07
    1    4   -0.16033019E-07  0.11635359E-06
    2    4    0.96525057E-08 -0.24252577E-07
    3    4   -0.66550070E-07 -0.37748529E-07
    4    4    0.32203941E-07 -0.52735534E-07

  -11    3    0
    1    1   -0.44986626E-07  0.70918524E-07
    2    1    0.10836035E-06  0.32065241E-07
    3    1   -0.24430565E-08 -0.83903129E-08
    4    1    0.21003663E-07 -0.69220643E-07
    1    2   -0.10714439E-06 -0.36615552E-07
    2    2   -0.31014042E-07  0.68887333E-07
    3    2   -0.12215154E-07  0.68945370E-07
    4    2   -0.52242097E-08 -0.53941868E-08
    1    3   -0.28398435E-07 -0.24720067E-08
    2    3    0.40080767E-07 -0.12238171E-06
    3    3    0.27114726E-07 -0.69932273E-07
    4    3    0.10505964E-06 -0.36869709E-07
    1    4   -0.18494665E-07  0.13055715E-06
    2    4   -0.16497034E-07 -0.11476270E-07
    3    4   -0.10152953E-06  0.31701326E-07
    4    4    0.14668626E-07 -0.69873574E-07

  -11    4    0
    1    1   -0.69812457E-07  0.74587896E-07
    2    1    0.12049195E-06  0.11566049E-06
    3    1   -0.25317190E-07  0.86112142E-09
    4    1    0.23020427E-07 -0.76987020E-07
    1    2   -0.12203982E-06 -0.12189363E-06
    2    2   -0.51932526E-07  0.72409586E-07
    3    2   -0.10735027E-07  0.74825617E-07
    4    2   -0.24779817E-07  0.54035057E-08
    1    3   -0.64595827E-07  0.87491048E-08
    2    3    0.46971764E-07 -0.78958337E-07
    3    3   -0.17396752E-08 -0.73238469E-07
    4    3    0.12711397E-06 -0.12191083E-06
    1    4   -0.17184909E-07  0.88433226E-07
    2    4   -0.46082364E-07 -0.37895168E-08
    3    4   -0.11978483E-06  0.11553642E-06
    4    4   -0.16643336E-07 -0.73758196E-07

  -11    5    0
    1    1   -0.72262335E-07  0.69323300E-07
    2    1    0.12296978E-06  0.17488822E-06
    3    1   -0.44268120E-07  0.30838452E-08
    4    1    0.21267151E-07 -0.51336800E-07
    1    2   -0.12765655E-06 -0.17861651E-06
    2    2   -0.53812384E-07  0.70646189E-07
    3    2   -0.78709430E-08  0.47849683E-07
    4    2   -0.40370374E-07  0.89394305E-08
    1    3   -0.77553489E-07  0.78497816E-08
    2    3    0.49262966E-07  0.45318463E-08
    3    3   -0.34014693E-07 -0.71119127E-07
    4    3    0.13273700E-06 -0.17869905E-06
    1    4   -0.14360703E-07  0.45321489E-08
    2    4   -0.57402418E-07 -0.78500086E-08
    3    4   -0.12099460E-06  0.17471915E-06
    4    4   -0.50535612E-07 -0.68849777E-07

  -11    6    0
    1    1   -0.51489053E-07  0.67693577E-07
    2    1    0.12264721E-06  0.17672087E-06
    3    1   -0.53793586E-07 -0.30372735E-08
    4    1    0.19293105E-07 -0.17530666E-08
    1    2   -0.13108347E-06 -0.17669636E-06
    2    2   -0.33059646E-07  0.72274782E-07
    3    2   -0.66314379E-08 -0.17541472E-08
    4    2   -0.46483290E-07  0.30371494E-08
    1    3   -0.63609330E-07  0.47574157E-08
    2    3    0.47540866E-07  0.86757869E-07
    3    3   -0.56395446E-07 -0.71928596E-07
    4    3    0.13212918E-06 -0.17639327E-06
    1    4   -0.16614645E-07 -0.80636986E-07
    2    4   -0.47069524E-07 -0.97174548E-08
    3    4   -0.11849445E-06  0.17711154E-06
    4    4   -0.69679161E-07 -0.68038677E-07

  -11    7    0
    1    1   -0.16088867E-07  0.70867088E-07
    2    1    0.11882620E-06  0.12053956E-06
    3    1   -0.47144988E-07 -0.89862538E-08
    4    1    0.19605536E-07  0.47931639E-07
    1    2   -0.12806865E-06 -0.11690233E-06
    2    2   -0.22901267E-08  0.76127455E-07
    3    2   -0.95317499E-08 -0.51259036E-07
    4    2   -0.37492406E-07 -0.30384052E-08
    1    3   -0.28817747E-07  0.12762956E-07
    2    3    0.39836812E-07  0.12832787E-06
    3    3   -0.55732138E-07 -0.75651320E-07
    4    3    0.12861794E-06 -0.11627334E-06
    1    4   -0.18737663E-07 -0.12461762E-06
    2    4   -0.16074681E-07  0.11810463E-08
    3    4   -0.11390736E-06  0.12127613E-06
    4    4   -0.66012401E-07 -0.71342806E-07

  -11    8    0
    1    1    0.16254198E-07  0.67649725E-07
    2    1    0.98789569E-07  0.35543411E-07
    3    1   -0.30232262E-07 -0.52055823E-08
    4    1    0.20181628E-07  0.74482303E-07
    1    2   -0.10780262E-06 -0.33010064E-07
    2    2    0.25534159E-07  0.72155140E-07
    3    2   -0.13573234E-07 -0.77335349E-07
    4    2   -0.19862022E-07 -0.10624988E-08
    1    3    0.34694797E-08  0.25571991E-07
    2    3    0.26750354E-07  0.11405295E-06
    3    3   -0.35031723E-07 -0.71365379E-07
    4    3    0.11410531E-06 -0.32313529E-07
    1    4   -0.17308842E-07 -0.11296440E-06
    2    4    0.11865073E-07  0.18391531E-07
    3    4   -0.10139724E-06  0.36347819E-07
    4    4   -0.40964898E-07 -0.68440037E-07

  -11    9    0
    1    1    0.33822329E-07  0.50956286E-07
    2    1    0.63756283E-07 -0.34662218E-07
    3    1   -0.83324671E-08  0.60216801E-08
    4    1    0.17603266E-07  0.67851075E-07
    1    2   -0.70356482E-07  0.37418671E-07
    2    2    0.38782400E-07  0.53315322E-07
    3    2   -0.15617010E-07 -0.70307902E-07
    4    2    0.66814153E-09  0.77582434E-08
    1    3    0.21713365E-07  0.31379521E-07
    2    3    0.11013732E-07  0.64450285E-07
    3    3   -0.56519114E-08 -0.52104532E-07
    4    3    0.82878038E-07  0.37799646E-07
    1    4   -0.11634928E-07 -0.64452672E-07
    2    4    0.26768220E-07  0.29519213E-07
    3    4   -0.73184581E-07 -0.34133600E-07
    4    4   -0.80855121E-08 -0.52165798E-07

  -11   10    0
    1    1    0.35627187E-07  0.24030531E-07
    2    1    0.24458407E-07 -0.66760636E-07
    3    1    0.66818106E-08  0.14211231E-07
    4    1    0.11194098E-07  0.38250993E-07
    1    2   -0.29063565E-07  0.67687865E-07
    2    2    0.36176760E-07  0.26017588E-07
    3    2   -0.13113503E-07 -0.40469040E-07
    4    2    0.14224689E-07  0.14325440E-07
    1    3    0.23491473E-07  0.24894116E-07
    2    3   -0.17131528E-08  0.15700413E-07
    3    3    0.17417922E-07 -0.24877450E-07
    4    3    0.41730394E-07  0.67610047E-07
    1    4   -0.43856556E-08 -0.15819074E-07
    2    4    0.26156271E-07  0.26050117E-07
    3    4   -0.37350373E-07 -0.66752725E-07
    4    4    0.18398080E-07 -0.25170634E-07

  -11   11    0
    1    1    0.28168080E-07  0.14584356E-09
    2    1   -0.54799544E-08 -0.63471985E-07
    3    1    0.14518305E-07  0.14174092E-07
    4    1    0.33560000E-08  0.86775336E-08
    1    2    0.40167450E-08  0.64345177E-07
    2    2    0.26961574E-07 -0.14546088E-09
    3    2   -0.73169355E-08 -0.10327078E-07
    4    2    0.19132061E-07  0.13488338E-07
    1    3    0.16263441E-07  0.12945771E-07
    2    3   -0.83241549E-08 -0.96178586E-08
    3    3    0.26629598E-07  0.30546870E-09
    4    3    0.49051950E-08  0.64253739E-07
    1    4    0.23483832E-08  0.93871126E-08
    2    4    0.17386964E-07  0.14716817E-07
    3    4   -0.45919099E-08 -0.63564961E-07
    4    4    0.28499966E-07 -0.30508416E-09

  -11   12    0
    1    1    0.19503879E-07 -0.16920270E-07
    2    1   -0.23074135E-07 -0.43332126E-07
    3    1    0.14716517E-07  0.68417411E-08
    4    1   -0.25985838E-08 -0.44901497E-08
    1    2    0.22662450E-07  0.43086298E-07
    2    2    0.17139988E-07 -0.17241097E-07
    3    2   -0.99432077E-09  0.39621904E-08
    4    2    0.16854588E-07  0.62213106E-08
    1    3    0.65607802E-08  0.27342349E-08
    2    3   -0.10288327E-07 -0.10396069E-07
    3    3    0.21952729E-07  0.17163373E-07
    4    3   -0.19591733E-07  0.42836496E-07
    1    4    0.67316954E-08  0.10164928E-07
    2    4    0.70269882E-08  0.36921369E-08
    3    4    0.19633346E-07 -0.43607536E-07
    4    4    0.24234788E-07  0.16998409E-07

  -11   13    0
    1    1    0.10338421E-07 -0.25097524E-07
    2    1   -0.31703535E-07 -0.17884273E-07
    3    1    0.10135326E-07  0.13912660E-10
    4    1   -0.64168201E-08 -0.82093368E-11
    1    2    0.31656119E-07  0.17690373E-07
    2    2    0.10153559E-07 -0.26318018E-07
    3    2    0.49154376E-08 -0.80143416E-11
    4    2    0.11002321E-07 -0.14131706E-10
    1    3   -0.24507472E-08 -0.10910127E-09
    2    3   -0.90270794E-08  0.62926662E-10
    3    3    0.10179342E-07  0.26096645E-07
    4    3   -0.31610919E-07  0.17307340E-07
    1    4    0.79326393E-08  0.63013541E-10
    2    4   -0.18188866E-08  0.10891910E-09
    3    4    0.31747245E-07 -0.18267302E-07
    4    4    0.10312653E-07  0.25318478E-07

  -10   -4    0
    1    1   -0.11319668E-07 -0.19549058E-07
    2    1   -0.23819872E-07  0.21737679E-07
    3    1   -0.11840057E-07 -0.28215013E-08
    4    1   -0.46814680E-08 -0.63035912E-08
    1    2    0.22476122E-07 -0.21143072E-07
    2    2   -0.10534643E-07 -0.19737455E-07
    3    2    0.62224545E-08  0.47116734E-08
    4    2   -0.88629861E-08 -0.18531308E-08
    1    3   -0.93914022E-08  0.98375470E-09
    2    3   -0.77325922E-08  0.91983702E-08
    3    3   -0.11321117E-07  0.19548819E-07
    4    3   -0.22477278E-07 -0.21143196E-07
    1    4    0.67833563E-08 -0.86174418E-08
    2    4   -0.85024090E-08  0.14460585E-08
    3    4    0.23821155E-07  0.21737877E-07
    4    4   -0.10536013E-07  0.19737404E-07

  -10   -3    0
    1    1    0.20164034E-08 -0.27729968E-07
    2    1   -0.34312001E-07  0.68573867E-08
    3    1   -0.73035002E-08 -0.92018015E-13
    4    1   -0.77136640E-08 -0.74026160E-09
    1    2    0.33341822E-07 -0.58887606E-08
    2    2    0.12553463E-08 -0.27089127E-07
    3    2    0.77138651E-08 -0.74286885E-09
    4    2   -0.46460371E-08 -0.16783644E-12
    1    3   -0.27271323E-08 -0.17640114E-08
    2    3   -0.11411343E-07  0.25351402E-07
    3    3   -0.59972864E-08  0.27250782E-07
    4    3   -0.34355610E-07 -0.58484045E-08
    1    4    0.86476622E-08 -0.25350371E-07
    2    4   -0.39622309E-08 -0.69651538E-09
    3    4    0.33529029E-07  0.69152233E-08
    4    4   -0.38173879E-08  0.27568827E-07

  -10   -2    0
    1    1    0.20846032E-07 -0.31398395E-07
    2    1   -0.38714231E-07 -0.21637912E-07
    3    1    0.17384271E-08 -0.11315975E-08
    4    1   -0.88370645E-08  0.11385850E-07
    1    2    0.38346038E-07  0.22561094E-07
    2    2    0.17119510E-07 -0.31418559E-07
    3    2    0.74913441E-08 -0.12528309E-07
    4    2    0.29780865E-08 -0.14847291E-08
    1    3    0.13170734E-07 -0.15256792E-07
    2    3   -0.14938843E-07  0.38854181E-07
    3    3    0.18978411E-08  0.31887537E-07
    4    3   -0.42046677E-07  0.22460600E-07
    1    4    0.93669990E-08 -0.39864648E-07
    2    4    0.77364910E-08 -0.13278509E-07
    3    4    0.41562513E-07 -0.21672464E-07
    4    4    0.50196176E-08  0.30929303E-07

  -10   -1    0
    1    1    0.38029189E-07 -0.25116112E-07
    2    1   -0.25840542E-07 -0.66128714E-07
    3    1    0.13591925E-07 -0.95991528E-08
    4    1   -0.79651220E-08  0.23114157E-07
    1    2    0.27667020E-07  0.68313758E-07
    2    2    0.33766702E-07 -0.24924746E-07
    3    2    0.63091766E-08 -0.23393358E-07
    4    2    0.11545114E-07 -0.10037619E-07
    1    3    0.36482174E-07 -0.40656574E-07
    2    3   -0.12183093E-07  0.26272810E-07
    3    3    0.16255990E-07  0.25464865E-07
    4    3   -0.41051801E-07  0.67266910E-07
    1    4    0.59939324E-08 -0.27525063E-07
    2    4    0.25623923E-07 -0.37847947E-07
    3    4    0.38013282E-07 -0.67091664E-07
    4    4    0.19558826E-07  0.24577023E-07

  -10    0    0
    1    1    0.40707525E-07  0.13106328E-08
    2    1    0.15048962E-07 -0.11688246E-06
    3    1    0.28127109E-07 -0.25808137E-07
    4    1   -0.96518750E-09  0.16222917E-07
    1    2   -0.11117709E-07  0.11794896E-06
    2    2    0.40519441E-07 -0.13106419E-08
    3    2    0.17065423E-08 -0.15281803E-07
    4    2    0.21514559E-07 -0.25127610E-07
    1    3    0.57672087E-07 -0.67737999E-07
    2    3    0.13991199E-08 -0.40295030E-07
    3    3    0.40707391E-07  0.13104344E-08
    4    3   -0.15048503E-07  0.11688220E-06
    1    4   -0.41063779E-08  0.39971306E-07
    2    4    0.44211511E-07 -0.66057535E-07
    3    4    0.11117055E-07 -0.11794875E-06
    4    4    0.40519338E-07 -0.13108582E-08

  -10    1    0
    1    1    0.15595559E-07  0.48322569E-07
    2    1    0.86825220E-07 -0.13382134E-06
    3    1    0.36482213E-07 -0.40656267E-07
    4    1    0.12183137E-07 -0.26272874E-07
    1    2   -0.80920502E-07  0.13455511E-06
    2    2    0.23598422E-07  0.44308700E-07
    3    2   -0.59943470E-08  0.27525178E-07
    4    2    0.25623902E-07 -0.37847971E-07
    1    3    0.54363428E-07 -0.79111568E-07
    2    3    0.27475617E-07 -0.15747235E-06
    3    3    0.71234966E-07 -0.45350826E-07
    4    3    0.48031986E-07  0.13211489E-06
    1    4   -0.16893089E-07  0.16454658E-06
    2    4    0.48158797E-07 -0.81247122E-07
    3    4   -0.51760688E-07 -0.13646694E-06
    4    4    0.60327546E-07 -0.47280517E-07

  -10    2    0
    1    1   -0.39023541E-07  0.10562049E-06
    2    1    0.17599024E-06 -0.70055013E-07
    3    1    0.26475599E-07 -0.41594395E-07
    4    1    0.28828146E-07 -0.99224367E-07
    1    2   -0.17021324E-06  0.66583227E-07
    2    2   -0.17575855E-07  0.97655240E-07
    3    2   -0.14479935E-07  0.99949226E-07
    4    2    0.15697321E-07 -0.36666228E-07
    1    3    0.10502930E-07 -0.58467519E-07
    2    3    0.61554906E-07 -0.26636557E-06
    3    3    0.86380350E-07 -0.10039243E-06
    4    3    0.14130212E-06  0.65162177E-07
    1    4   -0.30640716E-07  0.27921676E-06
    2    4    0.17761314E-07 -0.69794579E-07
    3    4   -0.14145726E-06 -0.71732276E-07
    4    4    0.66305703E-07 -0.10288483E-06

  -10    3    0
    1    1   -0.96543943E-07  0.14499973E-06
    2    1    0.25198572E-06  0.87265128E-07
    3    1   -0.71449971E-08 -0.26909488E-07
    4    1    0.42737557E-07 -0.16287511E-06
    1    2   -0.24966483E-06 -0.93445469E-07
    2    2   -0.63763154E-07  0.13567179E-06
    3    2   -0.19400773E-07  0.16055952E-06
    4    2   -0.13323861E-07 -0.19424735E-07
    1    3   -0.66032026E-07 -0.22987220E-07
    2    3    0.87974905E-07 -0.26496020E-06
    3    3    0.68254338E-07 -0.13881419E-06
    4    3    0.23741357E-06 -0.93567596E-07
    1    4   -0.34829585E-07  0.28167666E-06
    2    4   -0.40604680E-07 -0.42721469E-07
    3    4   -0.23079662E-06  0.86905119E-07
    4    4    0.38097227E-07 -0.14185785E-06

  -10    4    0
    1    1   -0.12103840E-06  0.15877764E-06
    2    1    0.29678478E-06  0.26475392E-06
    3    1   -0.56169602E-07 -0.82521322E-08
    4    1    0.48672524E-07 -0.15902520E-06
    1    2   -0.30088385E-06 -0.26981811E-06
    2    2   -0.79568723E-07  0.14932597E-06
    3    2   -0.17328762E-07  0.15368014E-06
    4    2   -0.53440858E-07  0.17665183E-08
    1    3   -0.12884217E-06  0.73890973E-08
    2    3    0.10276001E-06 -0.10730303E-06
    3    3    0.12791975E-07 -0.15226134E-06
    4    3    0.30328625E-06 -0.26927152E-06
    1    4   -0.32528985E-07  0.12621466E-06
    2    4   -0.89168600E-07 -0.21192164E-07
    3    4   -0.28599727E-06  0.26502661E-06
    4    4   -0.20798995E-07 -0.15584357E-06

  -10    5    0
    1    1   -0.88775723E-07  0.15614972E-06
    2    1    0.30696296E-06  0.34600903E-06
    3    1   -0.93523258E-07 -0.39168057E-08
    4    1    0.47983774E-07 -0.68805821E-07
    1    2   -0.32104264E-06 -0.34639591E-06
    2    2   -0.48491632E-07  0.15214603E-06
    3    2   -0.14850515E-07  0.62013518E-07
    4    2   -0.80263772E-07  0.74036869E-08
    1    3   -0.12949823E-06  0.22236563E-07
    2    3    0.10238132E-06  0.12440423E-06
    3    3   -0.52465408E-07 -0.15331407E-06
    4    3    0.32792739E-06 -0.34437222E-06
    1    4   -0.32907073E-07 -0.10910852E-06
    2    4   -0.88513166E-07 -0.84324953E-08
    3    4   -0.30007982E-06  0.34803249E-06
    4    4   -0.84800800E-07 -0.15498119E-06

  -10    6    0
    1    1   -0.19886362E-07  0.15310863E-06
    2    1    0.28441424E-06  0.26976202E-06
    3    1   -0.97926195E-07 -0.75146313E-08
    4    1    0.45441363E-07  0.62205042E-07
    1    2   -0.30486065E-06 -0.26453796E-06
    2    2    0.11881284E-07  0.15499297E-06
    3    2   -0.17392023E-07 -0.68613107E-07
    4    2   -0.75861271E-07  0.40278106E-08
    1    3   -0.69975131E-07  0.45026524E-07
    2    3    0.85697806E-07  0.27768411E-06
    3    3   -0.88160337E-07 -0.15387979E-06
    4    3    0.31576241E-06 -0.26192879E-06
    1    4   -0.37104817E-07 -0.26895184E-06
    2    4   -0.36663228E-07  0.20682447E-07
    3    4   -0.28189787E-06  0.27264597E-06
    4    4   -0.11244461E-06 -0.15422081E-06

  -10    7    0
    1    1    0.42775457E-07  0.13820907E-06
    2    1    0.22269352E-06  0.93216754E-07
    3    1   -0.67695075E-07 -0.15770448E-08
    4    1    0.42017353E-07  0.15335382E-06
    1    2   -0.24550154E-06 -0.87250407E-07
    2    2    0.63583876E-07  0.14245621E-06
    3    2   -0.23982627E-07 -0.15935800E-06
    4    2   -0.41914628E-07  0.80610007E-08
    1    3    0.25632985E-08  0.72524414E-07
    2    3    0.56967064E-07  0.27449517E-06
    3    3   -0.72963050E-07 -0.14067615E-06
    4    3    0.26559124E-06 -0.84769125E-07
    1    4   -0.35225394E-07 -0.27111189E-06
    2    4    0.25705316E-07  0.55731622E-07
    3    4   -0.23604208E-06  0.95936988E-07
    4    4   -0.87342932E-07 -0.13998902E-06

  -10    8    0
    1    1    0.71396242E-07  0.99416221E-07
    2    1    0.13265129E-06 -0.65751320E-07
    3    1   -0.21880513E-07  0.20289104E-07
    4    1    0.34227685E-07  0.15906264E-06
    1    2   -0.15011332E-06  0.71195039E-07
    2    2    0.81298722E-07  0.10386105E-06
    3    2   -0.27909986E-07 -0.16438663E-06
    4    2    0.14181883E-08  0.26037340E-07
    1    3    0.45136875E-07  0.83766884E-07
    2    3    0.22144275E-07  0.16014138E-06
    3    3   -0.25434575E-07 -0.10115061E-06
    4    3    0.18383019E-06  0.72661557E-07
    1    4   -0.22227122E-07 -0.16183026E-06
    2    4    0.57401682E-07  0.76573087E-07
    3    4   -0.16236793E-06 -0.64027905E-07
    4    4   -0.31155624E-07 -0.10212535E-06

  -10    9    0
    1    1    0.64674682E-07  0.44924005E-07
    2    1    0.44265275E-07 -0.13236270E-06
    3    1    0.12181891E-07  0.38208771E-07
    4    1    0.20576145E-07  0.97259890E-07
    1    2   -0.55575445E-07  0.13621151E-06
    2    2    0.66898488E-07  0.47724247E-07
    3    2   -0.22734970E-07 -0.10188907E-06
    4    2    0.29995724E-07  0.40045690E-07
    1    3    0.48756483E-07  0.66346929E-07
    2    3   -0.37524877E-08  0.39510229E-07
    3    3    0.19046012E-07 -0.45000791E-07
    4    3    0.88838651E-07  0.13574078E-06
    1    4   -0.92608810E-08 -0.40803085E-07
    2    4    0.53142848E-07  0.67468626E-07
    3    4   -0.78956136E-07 -0.13262898E-06
    4    4    0.20158992E-07 -0.47646510E-07

  -10   10    0
    1    1    0.42273303E-07  0.19328922E-09
    2    1   -0.14148816E-07 -0.11603860E-06
    3    1    0.25659698E-07  0.39095846E-07
    4    1    0.59355167E-08  0.25381812E-07
    1    2    0.12019502E-07  0.11884118E-06
    2    2    0.38962117E-07 -0.19288858E-09
    3    2   -0.12245265E-07 -0.28440968E-07
    4    2    0.36450783E-07  0.39415309E-07
    1    3    0.31020558E-07  0.38011160E-07
    2    3   -0.15340177E-07 -0.27814128E-07
    3    3    0.38867847E-07  0.11171781E-08
    4    3    0.13985818E-07  0.11830830E-06
    1    4    0.28406016E-08  0.26008592E-07
    2    4    0.31089955E-07  0.40500484E-07
    3    4   -0.12182901E-07 -0.11657259E-06
    4    4    0.42367505E-07 -0.11168321E-08

  -10   11    0
    1    1    0.20049302E-07 -0.24726189E-07
    2    1   -0.38868525E-07 -0.66839576E-07
    3    1    0.22849100E-07  0.25710007E-07
    4    1   -0.40149631E-08 -0.16290002E-07
    1    2    0.40209742E-07  0.67522087E-07
    2    2    0.15766016E-07 -0.25322120E-07
    3    2   -0.13424123E-08  0.15229514E-07
    4    2    0.26798484E-07  0.25234860E-07
    1    3    0.11507417E-07  0.13336103E-07
    2    3   -0.15900078E-07 -0.39963928E-07
    3    3    0.34044841E-07  0.25922824E-07
    4    3   -0.28151133E-07  0.66594791E-07
    1    4    0.84081297E-08  0.38756160E-07
    2    4    0.93984326E-08  0.15200216E-07
    3    4    0.25372533E-07 -0.67851937E-07
    4    4    0.37758463E-07  0.24126299E-07

  -10   12    0
    1    1    0.44494090E-08 -0.30828690E-07
    2    1   -0.40578276E-07 -0.21847750E-07
    3    1    0.12774540E-07  0.98084110E-08
    4    1   -0.84380622E-08 -0.22998721E-07
    1    2    0.43039764E-07  0.22284245E-07
    2    2    0.24691082E-08 -0.31990624E-07
    3    2    0.58375301E-08  0.23518034E-07
    4    2    0.12363487E-07  0.98311030E-08
    1    3   -0.24563423E-08  0.96324417E-09
    2    3   -0.11255897E-07 -0.25811780E-07
    3    3    0.18211481E-07  0.31814494E-07
    4    3   -0.40240313E-07  0.21877742E-07
    1    4    0.88039759E-08  0.24886823E-07
    2    4   -0.42328013E-08  0.14963932E-08
    3    4    0.36828800E-07 -0.22321109E-07
    4    4    0.19755966E-07  0.31004969E-07

  -10   13    0
    1    1   -0.40042531E-08 -0.27027625E-07
    2    1   -0.33205151E-07  0.59774001E-08
    3    1    0.32512473E-08  0.90168567E-09
    4    1   -0.79639855E-08 -0.11518521E-07
    1    2    0.34679978E-07 -0.67858745E-08
    2    2   -0.58101656E-08 -0.27792659E-07
    3    2    0.83647323E-08  0.12395678E-07
    4    2    0.14657678E-08  0.17147430E-08
    1    3   -0.83136759E-08 -0.10788867E-08
    2    3   -0.71104022E-08 -0.92518897E-08
    3    3    0.18659993E-08  0.27669765E-07
    4    3   -0.34400773E-07 -0.68928968E-08
    1    4    0.74058194E-08  0.85612083E-08
    2    4   -0.95805818E-08 -0.13509493E-08
    3    4    0.33256385E-07  0.58539790E-08
    4    4    0.14063015E-08  0.27151320E-07

  -10   14    0
    1    1   -0.11313610E-07 -0.19432490E-07
    2    1   -0.22472513E-07  0.21210737E-07
    3    1   -0.53105943E-08 -0.64218056E-09
    4    1   -0.65633949E-08  0.37070001E-09
    1    2    0.23824134E-07 -0.21671352E-07
    2    2   -0.10542458E-07 -0.19853330E-07
    3    2    0.88647891E-08  0.37095677E-09
    4    2   -0.66393353E-08  0.64222574E-09
    1    3   -0.11125499E-07  0.43285731E-09
    2    3   -0.30822739E-08 -0.24998431E-09
    3    3   -0.10149471E-07  0.19947972E-07
    4    3   -0.23144938E-07 -0.21508158E-07
    1    4    0.46475443E-08 -0.24973057E-09
    2    4   -0.12029124E-07 -0.43274972E-09
    3    4    0.23152927E-07  0.21374070E-07
    4    4   -0.11705716E-07  0.19338653E-07

   -9   -6    0
    1    1   -0.18649784E-07 -0.36608617E-08
    2    1   -0.18644005E-08  0.26739764E-07
    3    1   -0.12633462E-07 -0.49042461E-10
    4    1   -0.10485458E-08 -0.30330153E-08
    1    2    0.72205406E-09 -0.23446392E-07
    2    2   -0.18200676E-07 -0.41232618E-08
    3    2    0.18029468E-08  0.21237498E-08
    4    2   -0.10560432E-07  0.27808081E-09
    1    3   -0.12928369E-07  0.18409324E-08
    2    3   -0.17885704E-08  0.11500476E-08
    3    3   -0.18649563E-07  0.36605044E-08
    4    3   -0.72118584E-09 -0.23446098E-07
    1    4    0.13524502E-08 -0.10879168E-09
    2    4   -0.11850277E-07  0.23324514E-08
    3    4    0.18636565E-08  0.26739390E-07
    4    4   -0.18200470E-07  0.41229610E-08

   -9   -5    0
    1    1   -0.16380369E-07 -0.12275244E-07
    2    1   -0.12910586E-07  0.29580885E-07
    3    1   -0.13036854E-07 -0.49616376E-12
    4    1   -0.31834875E-08 -0.59181395E-09
    1    2    0.12799865E-07 -0.27737414E-07
    2    2   -0.16070347E-07 -0.10982037E-07
    3    2    0.31835141E-08 -0.59336377E-09
    4    2   -0.10418523E-07 -0.52850325E-12
    1    3   -0.14621890E-07  0.34443214E-08
    2    3   -0.54202314E-08  0.10753853E-07
    3    3   -0.18971284E-07  0.10699089E-07
    4    3   -0.11184191E-07 -0.27801967E-07
    1    4    0.39516430E-08 -0.97821801E-08
    2    4   -0.13170067E-07  0.47295680E-08
    3    4    0.12049708E-07  0.29515179E-07
    4    4   -0.17505342E-07  0.12557185E-07

   -9   -4    0
    1    1   -0.82090535E-08 -0.23835322E-07
    2    1   -0.31674583E-07  0.29642200E-07
    3    1   -0.11840442E-07  0.28205490E-08
    4    1   -0.62224685E-08  0.47136082E-08
    1    2    0.29466272E-07 -0.27505650E-07
    2    2   -0.94324235E-08 -0.23530175E-07
    3    2    0.46818684E-08 -0.63056144E-08
    4    2   -0.88633565E-08  0.18525554E-08
    1    3   -0.13923510E-07  0.30594622E-08
    2    3   -0.11987734E-07  0.32890543E-07
    3    3   -0.19625099E-07  0.23355045E-07
    4    3   -0.27824458E-07 -0.27297416E-07
    1    4    0.79295849E-08 -0.31874188E-07
    2    4   -0.13112007E-07  0.52258068E-08
    3    4    0.29252653E-07  0.29857741E-07
    4    4   -0.16338199E-07  0.24009964E-07

   -9   -3    0
    1    1    0.10602291E-07 -0.40206790E-07
    2    1   -0.53216449E-07  0.14381260E-07
    3    1   -0.83128629E-08  0.28710674E-08
    4    1   -0.10994057E-07  0.19132450E-07
    1    2    0.51517784E-07 -0.12120913E-07
    2    2    0.58258525E-08 -0.38277783E-07
    3    2    0.73550662E-08 -0.20964270E-07
    4    2   -0.47336054E-08  0.12733655E-08
    1    3   -0.24431884E-08 -0.83895619E-08
    2    3   -0.21003750E-07  0.69220213E-07
    3    3   -0.19015207E-07  0.38764923E-07
    4    3   -0.52659772E-07 -0.12421506E-07
    1    4    0.12215680E-07 -0.68944876E-07
    2    4   -0.52240544E-08 -0.53936396E-08
    3    4    0.52336508E-07  0.14146299E-07
    4    4   -0.13042304E-07  0.39719132E-07

   -9   -2    0
    1    1    0.40399621E-07 -0.51529161E-07
    2    1   -0.67545864E-07 -0.34325872E-07
    3    1    0.25637107E-08 -0.48217430E-08
    4    1   -0.14412722E-07  0.44180864E-07
    1    2    0.66550991E-07  0.37747693E-07
    2    2    0.32203556E-07 -0.52736014E-07
    3    2    0.95499123E-08 -0.46409631E-07
    4    2    0.45084730E-08 -0.66359712E-08
    1    3    0.26475885E-07 -0.41594225E-07
    2    3   -0.28828128E-07  0.99223392E-07
    3    3   -0.11678242E-07  0.53735148E-07
    4    3   -0.79394948E-07  0.36854396E-07
    1    4    0.14479856E-07 -0.99948037E-07
    2    4    0.15697583E-07 -0.36666043E-07
    3    4    0.76655137E-07 -0.35074029E-07
    4    4   -0.20667704E-08  0.50530430E-07

   -9   -1    0
    1    1    0.71235058E-07 -0.45350938E-07
    2    1   -0.48034660E-07 -0.13211457E-06
    3    1    0.25772417E-07 -0.29985266E-07
    4    1   -0.13356054E-07  0.63645298E-07
    1    2    0.51763483E-07  0.13646627E-06
    2    2    0.60327626E-07 -0.47281038E-07
    3    2    0.92895716E-08 -0.65257405E-07
    4    2    0.22706483E-07 -0.30913111E-07
    1    3    0.81307518E-07 -0.10320562E-06
    2    3   -0.26303210E-07  0.67430582E-07
    3    3    0.15596081E-07  0.48323103E-07
    4    3   -0.86828050E-07  0.13382114E-06
    1    4    0.10728395E-07 -0.68097338E-07
    2    4    0.57164693E-07 -0.97362178E-07
    3    4    0.80923173E-07 -0.13455497E-06
    4    4    0.23598817E-07  0.44308812E-07

   -9    0    0
    1    1    0.71313185E-07  0.32485792E-08
    2    1    0.37910904E-07 -0.25370014E-06
    3    1    0.57672798E-07 -0.67738872E-07
    4    1   -0.13991213E-08  0.40297682E-07
    1    2   -0.28498116E-07  0.25745297E-06
    2    2    0.70867393E-07 -0.32474406E-08
    3    2    0.41060701E-08 -0.39973687E-07
    4    2    0.44211925E-07 -0.66058628E-07
    1    3    0.13006581E-06 -0.17119105E-06
    2    3    0.27029406E-08 -0.10056137E-06
    3    3    0.71313312E-07  0.32478334E-08
    4    3   -0.37911056E-07  0.25370007E-06
    1    4   -0.80566073E-08  0.10379610E-06
    2    4    0.10008841E-06 -0.16662317E-06
    3    4    0.28498280E-07 -0.25745287E-06
    4    4    0.70867700E-07 -0.32480335E-08

   -9    1    0
    1    1    0.12250629E-07  0.10280941E-06
    2    1    0.20586508E-06 -0.29943357E-06
    3    1    0.81307483E-07 -0.10320560E-06
    4    1    0.26303513E-07 -0.67430365E-07
    1    2   -0.18966718E-06  0.29931455E-06
    2    2    0.33370794E-07  0.91971287E-07
    3    2   -0.10728889E-07  0.68097444E-07
    4    2    0.57164376E-07 -0.97362000E-07
    1    3    0.12872657E-06 -0.20404162E-06
    2    3    0.64542433E-07 -0.39571901E-06
    3    3    0.14950249E-06 -0.94615936E-07
    4    3    0.10611484E-06  0.29421274E-06
    1    4   -0.34430467E-07  0.41055826E-06
    2    4    0.11032994E-06 -0.21167267E-06
    3    4   -0.11422055E-06 -0.30482913E-06
    4    4    0.12581145E-06 -0.10016432E-06

   -9    2    0
    1    1   -0.10027482E-06  0.22843098E-06
    2    1    0.42452229E-06 -0.13741647E-06
    3    1    0.58155098E-07 -0.10717289E-06
    4    1    0.62020073E-07 -0.24163388E-06
    1    2   -0.40900773E-06  0.13011634E-06
    2    2   -0.46516185E-07  0.20616087E-06
    3    2   -0.25951109E-07  0.24123000E-06
    4    2    0.32950029E-07 -0.95750858E-07
    1    3    0.16879621E-07 -0.15886429E-06
    2    3    0.13870068E-06 -0.62813942E-06
    3    3    0.20087368E-06 -0.21268928E-06
    4    3    0.33545746E-06  0.12754988E-06
    1    4   -0.61022380E-07  0.65511974E-06
    2    4    0.33450471E-07 -0.18508581E-06
    3    4   -0.33616857E-06 -0.14041215E-06
    4    4    0.15390319E-06 -0.22190249E-06

   -9    3    0
    1    1   -0.18950663E-06  0.32243403E-06
    2    1    0.62165445E-06  0.23892615E-06
    3    1   -0.23043150E-07 -0.75628708E-07
    4    1    0.94193569E-07 -0.36591604E-06
    1    2   -0.61845738E-06 -0.24753373E-06
    2    2   -0.10906749E-06  0.28778724E-06
    3    2   -0.33081536E-07  0.36142085E-06
    4    2   -0.37090111E-07 -0.58287068E-07
    1    3   -0.15476850E-06 -0.63150219E-07
    2    3    0.19932291E-06 -0.50203482E-06
    3    3    0.17070664E-06 -0.29589378E-06
    4    3    0.57969805E-06 -0.24580076E-06
    1    4   -0.71522996E-07  0.53868783E-06
    2    4   -0.94582269E-07 -0.10894098E-06
    3    4   -0.56281046E-06  0.24008593E-06
    4    4    0.10011774E-06 -0.31432852E-06

   -9    4    0
    1    1   -0.16738174E-06  0.35473023E-06
    2    1    0.72597378E-06  0.58496304E-06
    3    1   -0.13329137E-06 -0.33257124E-07
    4    1    0.10782470E-06 -0.28799088E-06
    1    2   -0.74647495E-06 -0.58335839E-06
    2    2   -0.75834062E-07  0.31873213E-06
    3    2   -0.30446527E-07  0.27832719E-06
    4    2   -0.12074390E-06 -0.13559206E-07
    1    3   -0.24265306E-06  0.29839578E-07
    2    3    0.22125200E-06  0.17226700E-07
    3    3    0.45339846E-07 -0.32471331E-06
    4    3    0.74469511E-06 -0.57851408E-06
    1    4   -0.72513228E-07  0.17228004E-07
    2    4   -0.15677846E-06 -0.29837519E-07
    3    4   -0.69971111E-06  0.58949898E-06
    4    4   -0.30853649E-07 -0.34874960E-06

   -9    5    0
    1    1   -0.31284630E-07  0.34749628E-06
    2    1    0.70045379E-06  0.59166734E-06
    3    1   -0.19251878E-06 -0.10662735E-07
    4    1    0.10595033E-06 -0.61579264E-08
    1    2   -0.74394757E-06 -0.57634390E-06
    2    2    0.45769533E-07  0.32596458E-06
    3    2   -0.31945092E-07 -0.61549029E-08
    4    2   -0.14979165E-06  0.10663445E-07
    1    3   -0.16496723E-06  0.11336642E-06
    2    3    0.19343390E-06  0.53102311E-06
    3    3   -0.89842004E-07 -0.32703607E-06
    4    3    0.77073982E-06 -0.56897293E-06
    1    4   -0.77411034E-07 -0.50969329E-06
    2    4   -0.84381326E-07  0.58728878E-07
    3    4   -0.70170743E-06  0.59934574E-06
    4    4   -0.15337045E-06 -0.34642499E-06

   -9    6    0
    1    1    0.11045286E-06  0.30724236E-06
    2    1    0.54490236E-06  0.25235242E-06
    3    1   -0.15738670E-06  0.14300603E-07
    4    1    0.93912603E-07  0.27704146E-06
    1    2   -0.59759065E-06 -0.23353078E-06
    2    2    0.16037238E-06  0.30297325E-06
    3    2   -0.44357595E-07 -0.28926891E-06
    4    2   -0.96648592E-07  0.32517798E-07
    1    3   -0.43269192E-08  0.19021674E-06
    2    3    0.12645497E-06  0.64622775E-06
    3    3   -0.13055852E-06 -0.30017301E-06
    4    3    0.65568016E-06 -0.22607429E-06
    1    4   -0.73265017E-07 -0.63700901E-06
    2    4    0.54660497E-07  0.15373990E-06
    3    4   -0.58441891E-06  0.26038259E-06
    4    4   -0.16800905E-06 -0.31004291E-06

   -9    7    0
    1    1    0.16595813E-06  0.21402292E-06
    2    1    0.31527497E-06 -0.12677503E-06
    3    1   -0.60040090E-07  0.60676614E-07
    4    1    0.72831541E-07  0.35728255E-06
    1    2   -0.35630748E-06  0.14118267E-06
    2    2    0.18882834E-06  0.22055246E-06
    3    2   -0.54440923E-07 -0.37005369E-06
    4    2   -0.91287600E-10  0.73239958E-07
    1    3    0.10188382E-06  0.21619096E-06
    2    3    0.49047755E-07  0.40273318E-06
    3    3   -0.66667847E-07 -0.21487963E-06
    4    3    0.44389932E-06  0.14523062E-06
    1    4   -0.49923536E-07 -0.40354472E-06
    2    4    0.13715963E-06  0.19952368E-06
    3    4   -0.38958604E-06 -0.12229562E-06
    4    4   -0.80112117E-07 -0.21969604E-06

   -9    8    0
    1    1    0.13525639E-06  0.94181581E-07
    2    1    0.97884131E-07 -0.29449649E-06
    3    1    0.23641389E-07  0.98422698E-07
    4    1    0.42087706E-07  0.23660913E-06
    1    2   -0.12245527E-06  0.30460992E-06
    2    2    0.14008166E-06  0.10059842E-06
    3    2   -0.45880200E-07 -0.24629786E-06
    4    2    0.67478765E-07  0.10448407E-06
    1    3    0.10993512E-06  0.16916590E-06
    2    3   -0.89433095E-08  0.99392011E-07
    3    3    0.21089421E-07 -0.94730172E-07
    4    3    0.21095979E-06  0.30412893E-06
    1    4   -0.19696179E-07 -0.10496550E-06
    2    4    0.12028676E-06  0.16864929E-06
    3    4   -0.18456889E-06 -0.29468366E-06
    4    4    0.24556837E-07 -0.10004942E-06

   -9    9    0
    1    1    0.75066094E-07 -0.24325222E-12
    2    1   -0.35751079E-07 -0.25185467E-06
    3    1    0.56449862E-07  0.99112114E-07
    4    1    0.11955027E-07  0.65066949E-07
    1    2    0.30659052E-07  0.25935970E-06
    2    2    0.67138862E-07  0.41929152E-12
    3    2   -0.25076694E-07 -0.70460843E-07
    4    2    0.82009403E-07  0.10145566E-06
    1    3    0.69937292E-07  0.98534164E-07
    2    3   -0.32864051E-07 -0.70126693E-07
    3    3    0.66915858E-07  0.32500627E-08
    4    3    0.35364505E-07  0.25748375E-06
    1    4    0.41683214E-08  0.65400972E-07
    2    4    0.68521782E-07  0.10203362E-06
    3    4   -0.31045276E-07 -0.25373171E-06
    4    4    0.75289341E-07 -0.32496437E-08

   -9   10    0
    1    1    0.24160063E-07 -0.45638037E-07
    2    1   -0.81907970E-07 -0.13226183E-06
    3    1    0.46411374E-07  0.66628241E-07
    4    1   -0.79071001E-08 -0.40965604E-07
    1    2    0.85885442E-07  0.13610911E-06
    2    2    0.15045147E-07 -0.47010048E-07
    3    2   -0.23982043E-08  0.39347799E-07
    4    2    0.55488257E-07  0.67187270E-07
    1    3    0.24607260E-07  0.37581766E-07
    2    3   -0.29908946E-07 -0.10152700E-06
    3    3    0.61445365E-07  0.48690946E-07
    4    3   -0.53711597E-07  0.13403659E-06
    1    4    0.13402242E-07  0.97621865E-07
    2    4    0.17570374E-07  0.40672865E-07
    3    4    0.46130676E-07 -0.13453717E-06
    4    4    0.70128652E-07  0.43957696E-07

   -9   11    0
    1    1   -0.32801786E-08 -0.50563502E-07
    2    1   -0.74554245E-07 -0.35023004E-07
    3    1    0.25235278E-07  0.29983297E-07
    4    1   -0.13668747E-07 -0.63646629E-07
    1    2    0.81508397E-07  0.36909186E-07
    2    2   -0.10458047E-07 -0.53707732E-07
    3    2    0.89807752E-08  0.65256432E-07
    4    2    0.23246132E-07  0.30915629E-07
    1    3   -0.72209698E-09  0.62602166E-08
    2    3   -0.20011532E-07 -0.70445579E-07
    3    3    0.34684522E-07  0.53918937E-07
    4    3   -0.70854380E-07  0.35707311E-07
    1    4    0.13209558E-07  0.67713309E-07
    2    4   -0.69424946E-08  0.75198111E-08
    3    4    0.63258830E-07 -0.36372011E-07
    4    4    0.37920409E-07  0.50352264E-07

   -9   12    0
    1    1   -0.14395034E-07 -0.38734968E-07
    2    1   -0.49994490E-07  0.12437187E-07
    3    1    0.61288050E-08  0.52164047E-08
    4    1   -0.12355218E-07 -0.43949535E-07
    1    2    0.55005803E-07 -0.14125665E-07
    2    2   -0.17661465E-07 -0.39751500E-07
    3    2    0.11608399E-07  0.46635113E-07
    4    2    0.94490275E-09  0.62393811E-08
    1    3   -0.11556601E-07 -0.42451105E-08
    2    3   -0.10621795E-07 -0.33573265E-07
    3    3    0.77559351E-08  0.39739761E-07
    4    3   -0.54861886E-07 -0.14648743E-07
    1    4    0.92958042E-08  0.31188697E-07
    2    4   -0.15477218E-07 -0.40422182E-08
    3    4    0.49875769E-07  0.11848362E-07
    4    4    0.86728393E-08  0.38746912E-07

   -9   13    0
    1    1   -0.17778251E-07 -0.22737846E-07
    2    1   -0.26758904E-07  0.27652199E-07
    3    1   -0.40521756E-08 -0.24668936E-08
    4    1   -0.85344591E-08 -0.18896518E-07
    1    2    0.30319670E-07 -0.29499381E-07
    2    2   -0.18184840E-07 -0.24627761E-07
    3    2    0.98148141E-08  0.21196400E-07
    4    2   -0.89936207E-08 -0.16789035E-08
    1    3   -0.12896579E-07 -0.39882773E-08
    2    3   -0.44246942E-08 -0.11066800E-07
    3    3   -0.81702227E-08  0.24532008E-07
    4    3   -0.31652652E-07 -0.29238851E-07
    1    4    0.49479322E-08  0.94679614E-08
    2    4   -0.14894326E-07 -0.41872284E-08
    3    4    0.29489011E-07  0.27906491E-07
    4    4   -0.94712173E-08  0.22834195E-07

   -9   14    0
    1    1   -0.18246416E-07 -0.11351424E-07
    2    1   -0.10766307E-07  0.27424979E-07
    3    1   -0.89400172E-08 -0.27842009E-08
    4    1   -0.45481219E-08 -0.46914632E-08
    1    2    0.12468729E-07 -0.29890721E-07
    2    2   -0.18229903E-07 -0.11906154E-07
    3    2    0.63559126E-08  0.63259116E-08
    4    2   -0.11763067E-07 -0.18897707E-08
    1    3   -0.11931089E-07 -0.17592022E-08
    2    3   -0.12130615E-08 -0.11024815E-08
    3    3   -0.16099904E-07  0.12103443E-07
    4    3   -0.12749143E-07 -0.29679597E-07
    1    4    0.19286125E-08  0.15595975E-09
    2    4   -0.12847934E-07 -0.24150409E-08
    3    4    0.12962035E-07  0.27637919E-07
    4    4   -0.16350860E-07  0.11153610E-07

   -9   15    0
    1    1   -0.18808022E-07 -0.25818273E-08
    2    1   -0.81268467E-09  0.24070038E-07
    3    1   -0.11073052E-07 -0.51304055E-09
    4    1   -0.20498234E-08  0.29615474E-09
    1    2    0.17728185E-08 -0.26117234E-07
    2    2   -0.18043066E-07 -0.52026088E-08
    3    2    0.43175190E-08  0.29629400E-09
    4    2   -0.12382214E-07  0.51317892E-09
    1    3   -0.10415720E-07  0.21346167E-09
    2    3    0.69026869E-09 -0.12334782E-09
    3    3   -0.17818220E-07  0.54337098E-08
    4    3   -0.13842896E-08 -0.25716441E-07
    1    4   -0.58837467E-09 -0.12302786E-09
    2    4   -0.10474454E-07 -0.21322156E-09
    3    4    0.12019674E-08  0.24470245E-07
    4    4   -0.19032310E-07  0.23503486E-08

   -8   -7    0
    1    1   -0.18244556E-07 -0.77586611E-09
    2    1    0.40468043E-08  0.22922320E-07
    3    1   -0.73797514E-08 -0.22493190E-12
    4    1    0.25538592E-09 -0.96392329E-10
    1    2   -0.38218562E-08 -0.21605873E-07
    2    2   -0.19104746E-07  0.47236240E-09
    3    2   -0.25523486E-09 -0.96455850E-10
    4    2   -0.64434920E-08 -0.31898816E-12
    1    3   -0.13502097E-07  0.14058526E-08
    2    3   -0.72330937E-09  0.33334306E-08
    3    3   -0.19449132E-07 -0.32257631E-09
    4    3    0.41899289E-08 -0.21543332E-07
    1    4    0.13128929E-09 -0.28112479E-08
    2    4   -0.13064869E-07  0.20544668E-08
    3    4   -0.40212233E-08  0.22985070E-07
    4    4   -0.17915223E-07  0.62522247E-09

   -8   -6    0
    1    1   -0.19960952E-07 -0.64279808E-08
    2    1   -0.52416682E-08  0.32031537E-07
    3    1   -0.12633358E-07  0.48280469E-10
    4    1   -0.18030529E-08  0.21240792E-08
    1    2    0.35694761E-08 -0.30544347E-07
    2    2   -0.20632375E-07 -0.50185239E-08
    3    2    0.10489486E-08 -0.30331748E-08
    4    2   -0.10560400E-07 -0.27920772E-09
    1    3   -0.17911178E-07  0.32705975E-08
    2    3   -0.36086686E-08  0.76279684E-08
    3    3   -0.22129119E-07  0.50274345E-08
    4    3   -0.31482442E-08 -0.30606036E-07
    1    4    0.17055232E-08 -0.64664503E-08
    2    4   -0.16538688E-07  0.46735699E-08
    3    4    0.36811117E-08  0.31971339E-07
    4    4   -0.21079193E-07  0.64180583E-08

   -8   -5    0
    1    1   -0.18366797E-07 -0.18283979E-07
    2    1   -0.24256025E-07  0.46220087E-07
    3    1   -0.15639922E-07  0.37484284E-08
    4    1   -0.50328179E-08  0.42630626E-08
    1    2    0.22074783E-07 -0.42967234E-07
    2    2   -0.20628949E-07 -0.16488521E-07
    3    2    0.27239195E-08 -0.55472543E-08
    4    2   -0.12738886E-07  0.25421448E-08
    1    3   -0.23732933E-07  0.48582349E-08
    2    3   -0.10187732E-07  0.27403292E-07
    3    3   -0.28402649E-07  0.16144338E-07
    4    3   -0.19260921E-07 -0.43316781E-07
    1    4    0.52354408E-08 -0.25746083E-07
    2    4   -0.21712765E-07  0.77481559E-08
    3    4    0.20395912E-07  0.45892985E-07
    4    4   -0.24825110E-07  0.18627467E-07

   -8   -4    0
    1    1   -0.65918902E-08 -0.38900086E-07
    2    1   -0.58059526E-07  0.55684780E-07
    3    1   -0.17905969E-07  0.67454373E-08
    4    1   -0.10798519E-07  0.17655968E-07
    1    2    0.54492098E-07 -0.52901505E-07
    2    2   -0.11865080E-07 -0.37915161E-07
    3    2    0.58712886E-08 -0.19718508E-07
    4    2   -0.13230344E-07  0.40325355E-08
    1    3   -0.25317128E-07  0.86162834E-09
    2    3   -0.23020503E-07  0.76987682E-07
    3    3   -0.36982216E-07  0.38237735E-07
    4    3   -0.52478265E-07 -0.53028795E-07
    1    4    0.10735013E-07 -0.74826243E-07
    2    4   -0.24779506E-07  0.54040792E-08
    3    4    0.53656619E-07  0.55610637E-07
    4    4   -0.29557105E-07  0.38577494E-07

   -8   -3    0
    1    1    0.27114919E-07 -0.69932159E-07
    2    1   -0.10505980E-06  0.36867358E-07
    3    1   -0.14199076E-07  0.34389320E-08
    4    1   -0.19658467E-07  0.52347757E-07
    1    2    0.10152972E-06 -0.31698907E-07
    2    2    0.14669245E-07 -0.69873353E-07
    3    2    0.10564895E-07 -0.56200786E-07
    4    2   -0.83442078E-08 -0.62445081E-09
    1    3   -0.71444731E-08 -0.26908613E-07
    2    3   -0.42738051E-07  0.16287694E-06
    3    3   -0.44985677E-07  0.70918868E-07
    4    3   -0.10836014E-06 -0.32062450E-07
    1    4    0.19401000E-07 -0.16056114E-06
    2    4   -0.13322991E-07 -0.19423374E-07
    3    4    0.10714421E-06  0.36612898E-07
    4    4   -0.31013309E-07  0.68887590E-07

   -8   -2    0
    1    1    0.86380854E-07 -0.10039223E-06
    2    1   -0.14130276E-06 -0.65167426E-07
    3    1    0.56751097E-08 -0.19718200E-07
    4    1   -0.28025688E-07  0.11067699E-06
    1    2    0.14145777E-06  0.71737656E-07
    2    2    0.66306323E-07 -0.10288452E-06
    3    2    0.16033541E-07 -0.11635157E-06
    4    2    0.96537173E-08 -0.24251366E-07
    1    3    0.58155905E-07 -0.10717208E-06
    2    3   -0.62020277E-07  0.24163653E-06
    3    3   -0.39022569E-07  0.10562074E-06
    4    3   -0.17598964E-06  0.70060304E-07
    1    4    0.25950791E-07 -0.24123264E-06
    2    4    0.32951007E-07 -0.95749764E-07
    3    4    0.17021260E-06 -0.66588443E-07
    4    4   -0.17574798E-07  0.97655688E-07

   -8   -1    0
    1    1    0.14950357E-06 -0.94616078E-07
    2    1   -0.10611591E-06 -0.29421744E-06
    3    1    0.54365141E-07 -0.79110103E-07
    4    1   -0.27475455E-07  0.15746776E-06
    1    2    0.11422184E-06  0.30483362E-06
    2    2    0.12581241E-06 -0.10016460E-06
    3    2    0.16893409E-07 -0.16454217E-06
    4    2    0.48160766E-07 -0.81245354E-07
    1    3    0.18437381E-06 -0.25760930E-06
    2    3   -0.59381649E-07  0.16908315E-06
    3    3    0.12252402E-07  0.10280913E-06
    4    3   -0.20586487E-06  0.29943796E-06
    1    4    0.20114741E-07 -0.16643905E-06
    2    4    0.13114063E-06 -0.24193959E-06
    3    4    0.18966681E-06 -0.29931932E-06
    4    4    0.33372651E-07  0.91970969E-07

   -8    0    0
    1    1    0.14490119E-06  0.54814685E-08
    2    1    0.92339187E-07 -0.60075642E-06
    3    1    0.13006984E-06 -0.17119146E-06
    4    1   -0.27020439E-08  0.10056145E-06
    1    2   -0.69721374E-07  0.60870916E-06
    2    2    0.14512779E-06 -0.54817929E-08
    3    2    0.80558920E-08 -0.10379636E-06
    4    2    0.10009230E-06 -0.16662331E-06
    1    3    0.31923488E-06 -0.43284011E-06
    2    3    0.97946140E-08 -0.26337336E-06
    3    3    0.14490116E-06  0.54817501E-08
    4    3   -0.92338656E-07  0.60075607E-06
    1    4   -0.18323826E-07  0.27038716E-06
    2    4    0.24298486E-06 -0.42381395E-06
    3    4    0.69720786E-07 -0.60870888E-06
    4    4    0.14512792E-06 -0.54814108E-08

   -8    1    0
    1    1    0.62466433E-08  0.23363834E-06
    2    1    0.51293654E-06 -0.70315062E-06
    3    1    0.18437376E-06 -0.25760895E-06
    4    1    0.59381670E-07 -0.16908298E-06
    1    2   -0.47532568E-06  0.70828300E-06
    2    2    0.60112627E-07  0.20865785E-06
    3    2   -0.20114575E-07  0.16643865E-06
    4    2    0.13114066E-06 -0.24193915E-06
    1    3    0.30101855E-06 -0.50984392E-06
    2    3    0.15107979E-06 -0.10052291E-05
    3    3    0.34985739E-06 -0.21526651E-06
    4    3    0.26241561E-06  0.69819479E-06
    1    4   -0.76552961E-07  0.10370452E-05
    2    4    0.25397975E-06 -0.52754968E-06
    3    4   -0.28540913E-06 -0.71414529E-06
    4    4    0.29610671E-06 -0.22703005E-06

   -8    2    0
    1    1   -0.21748795E-06  0.53192017E-06
    2    1    0.10703643E-05 -0.25241100E-06
    3    1    0.12618690E-06 -0.27051299E-06
    4    1    0.14623976E-06 -0.58655865E-06
    1    2   -0.10401121E-05  0.25040650E-06
    2    2   -0.93488414E-07  0.46548043E-06
    3    2   -0.51013909E-07  0.58231497E-06
    4    2    0.69781211E-07 -0.24016812E-06
    1    3    0.76796251E-08 -0.36589336E-06
    2    3    0.32994736E-06 -0.14134448E-05
    3    3    0.49667661E-06 -0.48442170E-06
    4    3    0.85204061E-06  0.24572180E-06
    1    4   -0.13670525E-06  0.14778646E-05
    2    4    0.52512598E-07 -0.42608180E-06
    3    4   -0.85903887E-06 -0.25878601E-06
    4    4    0.37738303E-06 -0.51298001E-06

   -8    3    0
    1    1   -0.30587586E-06  0.74048750E-06
    2    1    0.15486673E-05  0.65198010E-06
    3    1   -0.84929776E-07 -0.17980402E-06
    4    1    0.22040045E-06 -0.78228809E-06
    1    2   -0.15519109E-05 -0.64195564E-06
    2    2   -0.12486913E-06  0.63271631E-06
    3    2   -0.66095766E-07  0.77104258E-06
    4    2   -0.10397887E-06 -0.14356412E-06
    1    3   -0.34104904E-06 -0.90633062E-07
    2    3    0.44835981E-06 -0.68864451E-06
    3    3    0.40142933E-06 -0.65191653E-06
    4    3    0.14667594E-05 -0.63320475E-06
    1    4   -0.16299413E-06  0.76030559E-06
    2    4   -0.20074560E-06 -0.19176604E-06
    3    4   -0.14187370E-05  0.65944336E-06
    4    4    0.24102025E-06 -0.72128742E-06

   -8    4    0
    1    1   -0.84000334E-07  0.79670901E-06
    2    1    0.16871662E-05  0.11648574E-05
    3    1   -0.31824571E-06 -0.67700733E-07
    4    1    0.24746805E-06 -0.38700681E-06
    1    2   -0.17570469E-05 -0.11234776E-05
    2    2    0.92502496E-07  0.68451148E-06
    3    2   -0.67879413E-07  0.36623396E-06
    4    2   -0.25917152E-06 -0.28274119E-07
    1    3   -0.35938763E-06  0.19751458E-06
    2    3    0.43777197E-06  0.75035376E-06
    3    3    0.78635692E-07 -0.69464294E-06
    4    3    0.17810651E-05 -0.11059291E-05
    1    4   -0.17358260E-06 -0.69860024E-06
    2    4   -0.18240557E-06  0.84887951E-07
    3    4   -0.16631494E-05  0.11824051E-05
    4    4   -0.70134173E-07 -0.78657765E-06

   -8    5    0
    1    1    0.26032971E-06  0.71530657E-06
    2    1    0.13852927E-05  0.66979754E-06
    3    1   -0.35170318E-06  0.29137818E-07
    4    1    0.22815105E-06  0.36473930E-06
    1    2   -0.15002000E-05 -0.62283969E-06
    2    2    0.38212304E-06  0.65789781E-06
    3    2   -0.87196619E-07 -0.38849677E-06
    4    2   -0.22571279E-06  0.66840852E-07
    1    3   -0.42369391E-07  0.43893260E-06
    2    3    0.30105070E-06  0.14556182E-05
    3    3   -0.16871517E-06 -0.65531874E-06
    4    3    0.16278584E-05 -0.60280173E-06
    1    4   -0.16560242E-06 -0.14357031E-05
    2    4    0.10256683E-06  0.35304861E-06
    3    4   -0.14727234E-05  0.69112223E-06
    4    4   -0.26202781E-06 -0.71788572E-06

   -8    6    0
    1    1    0.41024027E-06  0.50018339E-06
    2    1    0.80213185E-06 -0.23664045E-06
    3    1   -0.16603040E-06  0.14775796E-06
    4    1    0.17357617E-06  0.76377830E-06
    1    2   -0.90894245E-06  0.26790566E-06
    2    2    0.46382686E-06  0.49721832E-06
    3    2   -0.11292014E-06 -0.78953978E-06
    4    2   -0.22874041E-07  0.17561669E-06
    1    3    0.23347415E-06  0.53690828E-06
    2    3    0.11208184E-06  0.10208687E-05
    3    3   -0.13758467E-06 -0.48295882E-06
    4    3    0.11164976E-05  0.28069943E-06
    1    4   -0.11555379E-06 -0.10214426E-05
    2    4    0.32153715E-06  0.50050067E-06
    3    4   -0.99398376E-06 -0.22215798E-06
    4    4   -0.17338556E-06 -0.51444209E-06

   -8    7    0
    1    1    0.31951234E-06  0.21718310E-06
    2    1    0.24488806E-06 -0.69711757E-06
    3    1    0.42654998E-07  0.24592398E-06
    4    1    0.98008499E-07  0.57233907E-06
    1    2   -0.30293316E-06  0.71527782E-06
    2    2    0.32647396E-06  0.22511310E-06
    3    2   -0.99242500E-07 -0.59649649E-06
    4    2    0.15332582E-06  0.26477210E-06
    1    3    0.26576990E-06  0.42910766E-06
    2    3   -0.21093177E-07  0.26121797E-06
    3    3    0.30370394E-07 -0.21267977E-06
    4    3    0.52685954E-06  0.71527720E-06
    1    4   -0.49205992E-07 -0.27254200E-06
    2    4    0.29650942E-06  0.42754655E-06
    3    4   -0.46140492E-06 -0.69621224E-06
    4    4    0.36010668E-07 -0.22961611E-06

   -8    8    0
    1    1    0.15488200E-06 -0.70252396E-09
    2    1   -0.86585525E-07 -0.59814451E-06
    3    1    0.12747610E-06  0.24471163E-06
    4    1    0.26517662E-07  0.16163655E-06
    1    2    0.75472901E-07  0.61161534E-06
    2    2    0.13518105E-06  0.70323205E-09
    3    2   -0.52984519E-07 -0.17388485E-06
    4    2    0.18809843E-06  0.25483682E-06
    1    3    0.16148223E-06  0.24700195E-06
    2    3   -0.72618203E-07 -0.17520732E-06
    3    3    0.13529355E-06  0.61847898E-08
    4    3    0.86782048E-07  0.60763987E-06
    1    4    0.68843628E-08  0.16031485E-06
    2    4    0.15409223E-06  0.25254679E-06
    3    4   -0.75276774E-07 -0.60212186E-06
    4    4    0.15476770E-06 -0.61841385E-08

   -8    9    0
    1    1    0.35117439E-07 -0.94629971E-07
    2    1   -0.19266721E-06 -0.29474133E-06
    3    1    0.10529789E-06  0.16636500E-06
    4    1   -0.17018564E-07 -0.10334836E-06
    1    2    0.20285992E-06  0.30407076E-06
    2    2    0.10528596E-07 -0.10015024E-06
    3    2   -0.62659414E-08  0.10100985E-06
    4    2    0.12492394E-06  0.17145029E-06
    1    3    0.54876990E-07  0.98773372E-07
    2    3   -0.63914490E-07 -0.24650008E-06
    3    3    0.12823514E-06  0.10337388E-06
    4    3   -0.11840212E-06  0.29930280E-06
    1    4    0.24053784E-07  0.23640660E-06
    2    4    0.36242860E-07  0.10413353E-06
    3    4    0.10193779E-06 -0.29980306E-06
    4    4    0.14710190E-06  0.91407160E-07

   -8   10    0
    1    1   -0.20431932E-07 -0.98143249E-07
    2    1   -0.16525591E-06 -0.65763938E-07
    3    1    0.54299781E-07  0.77640563E-07
    4    1   -0.27517532E-07 -0.15829327E-06
    1    2    0.18094153E-06  0.70925128E-07
    2    2   -0.36158099E-07 -0.10513273E-06
    3    2    0.16854538E-07  0.16367925E-06
    4    2    0.48239000E-07  0.82700097E-07
    1    3   -0.16708493E-08  0.22295004E-07
    2    3   -0.39578665E-07 -0.16554471E-06
    3    3    0.71261624E-07  0.10510683E-06
    4    3   -0.15003631E-06  0.67908908E-07
    1    4    0.22559992E-07  0.15790455E-06
    2    4   -0.18791529E-07  0.24031673E-07
    3    4    0.13272960E-06 -0.69036312E-07
    4    4    0.81432830E-07  0.98169870E-07

   -8   11    0
    1    1   -0.33979082E-07 -0.67425282E-07
    2    1   -0.10200417E-06  0.34073286E-07
[...]
    4    3   -0.89810624E-03 -0.72192650E-03  0.61685758E-03  0.52912457E-03 -0.97088808E-06  0.14617567E-06
    1    4   -0.23869524E-04  0.50087135E-03 -0.22201259E-03  0.90181436E-04 -0.71012644E-07 -0.20205567E-05
    2    4    0.47662773E-04 -0.37492286E-03  0.52763554E-03  0.32957346E-03  0.11098382E-06 -0.14223621E-05
    3    4    0.94382585E-03  0.74946608E-03 -0.71117357E-03 -0.54119433E-03  0.10210120E-05 -0.30302949E-06
    4    4    0.27364780E-04  0.28902768E-05  0.74796098E-05  0.16561390E-06 -0.74309481E-06 -0.34855227E-07

   13   -5    0
    1    1   -0.33503642E-04  0.20710460E-05 -0.11721560E-03 -0.11608251E-04  0.12134545E-05 -0.12930544E-06
    2    1   -0.81050617E-03  0.58053385E-03  0.24591650E-03 -0.46471630E-03 -0.36975250E-06 -0.73738158E-06
    3    1   -0.62947835E-03 -0.51452582E-03 -0.54573762E-03  0.76522713E-03  0.22400483E-06 -0.22677610E-05
    4    1   -0.50859422E-03 -0.44650464E-03 -0.39005848E-03 -0.53447511E-04  0.23628362E-07  0.24275143E-05
    1    2    0.85861207E-03 -0.63184297E-03 -0.25577872E-03  0.46577705E-03  0.37704335E-06  0.57036136E-06
    2    2   -0.16737502E-04 -0.24617388E-05 -0.58494955E-04  0.36388401E-05  0.12876575E-05  0.33961909E-07
    3    2    0.69626022E-03  0.22072173E-03  0.35951427E-03  0.69187472E-04  0.12746316E-07 -0.22989431E-05
    4    2   -0.43294934E-03 -0.20570498E-03 -0.60811056E-03  0.61463117E-03  0.33370123E-06 -0.22343674E-05
    1    3    0.68546667E-06 -0.42584498E-03  0.39426091E-03  0.29135338E-03  0.44773994E-07 -0.13583891E-05
    2    3   -0.72790354E-04 -0.64588187E-03  0.22466020E-03  0.39268988E-04  0.58802683E-07  0.12720822E-05
    3    3    0.38830024E-04 -0.91484539E-05  0.11914797E-03 -0.72231408E-05 -0.18528502E-06 -0.18973190E-07
    4    3   -0.94562503E-03 -0.59226155E-03  0.57662674E-03  0.47935357E-03 -0.13995877E-05  0.56303109E-06
    1    4    0.87097555E-04  0.54542204E-03 -0.22677798E-03  0.18801470E-04  0.10772023E-06 -0.13523652E-05
    2    4   -0.93852533E-04 -0.49676399E-03  0.41199600E-03  0.34121325E-03  0.17783574E-06 -0.13621042E-05
    3    4    0.10170683E-02  0.59500849E-03 -0.63178188E-03 -0.47035575E-03  0.14546280E-05 -0.75692700E-06
    4    4    0.10226260E-04  0.54704238E-05  0.56787159E-04 -0.75797405E-05 -0.21185115E-06  0.11363156E-06

   13   -4    0
    1    1   -0.11510238E-04  0.92724184E-05 -0.10856460E-03 -0.20571418E-04  0.95301568E-06 -0.16609210E-06
    2    1   -0.63887524E-03  0.28991865E-03  0.17041374E-03 -0.36956820E-03 -0.15245135E-06 -0.96801632E-06
    3    1   -0.22262519E-03 -0.78537998E-03 -0.30352498E-03  0.71316022E-03  0.44473114E-06 -0.18828910E-05
    4    1   -0.46276642E-03 -0.59318272E-03 -0.37413574E-03  0.29553119E-04 -0.49094910E-07  0.10261017E-05
    1    2    0.63150968E-03 -0.30580717E-03 -0.12891829E-03  0.36293392E-03  0.20528139E-06  0.80010805E-06
    2    2   -0.18470329E-04 -0.19839994E-04 -0.82381809E-04  0.14487621E-04  0.10006886E-05  0.10098468E-06
    3    2    0.59821675E-03  0.50776496E-03  0.37278435E-03 -0.74737731E-04 -0.97979897E-07 -0.99443048E-06
    4    2   -0.21491306E-03 -0.49916065E-03 -0.32566455E-03  0.60949664E-03  0.48022418E-06 -0.19379871E-05
    1    3   -0.23423530E-03 -0.22069266E-03  0.22082731E-03  0.16568501E-03  0.17601768E-06 -0.12184027E-05
    2    3   -0.17752384E-03 -0.68158658E-03  0.20604593E-03  0.65767093E-04  0.69385889E-07  0.59675178E-06
    3    3    0.10195770E-04 -0.24124997E-04  0.11314224E-03  0.12691680E-04  0.27440028E-06 -0.84630825E-07
    4    3   -0.80104122E-03 -0.29523728E-03  0.46018522E-03  0.34235524E-03 -0.10698472E-05  0.76924029E-06
    1    4    0.19510177E-03  0.76829114E-03 -0.17039325E-03 -0.40317582E-04  0.10513711E-06 -0.63126173E-06
    2    4    0.10814217E-03 -0.37764940E-03  0.18218652E-03  0.20086911E-03  0.88614161E-07 -0.12556617E-05
    3    4    0.91448125E-03  0.28559752E-03 -0.48703323E-03 -0.35364693E-03  0.11185518E-05 -0.10039520E-05
    4    4    0.22115260E-04  0.12490097E-04  0.69962093E-04 -0.18665081E-04  0.22458020E-06  0.14907211E-06

   13   -3    0
    1    1    0.26018519E-05 -0.84925714E-05 -0.70307603E-04  0.11944459E-04  0.51608674E-06 -0.12377637E-06
    2    1   -0.34891713E-03 -0.55590774E-04  0.10547583E-03 -0.23822988E-03  0.31816157E-06 -0.68367493E-06
    3    1    0.49633812E-04 -0.61135141E-03  0.16845511E-04  0.44643099E-03  0.47635900E-06 -0.13702455E-05
    4    1   -0.32448910E-03 -0.77254843E-03 -0.26535041E-03  0.88435319E-04  0.21136260E-07 -0.25135359E-06
    1    2    0.35566120E-03  0.99814265E-05 -0.93463951E-04  0.25148380E-03 -0.25887955E-06  0.61467185E-06
    2    2   -0.38680912E-05  0.11097770E-04 -0.33619608E-04 -0.27216564E-04  0.44876986E-06  0.19224954E-06
    3    2    0.47082380E-03  0.77216159E-03  0.24796132E-03 -0.14378455E-03 -0.82034691E-07  0.26748871E-06
    4    2    0.12853336E-04 -0.38365325E-03 -0.13591967E-04  0.39825740E-03  0.34180589E-06 -0.14434331E-05
    1    3   -0.79521239E-05  0.15135450E-03  0.60814002E-04 -0.75702101E-06 -0.16866125E-10 -0.10845296E-05
    2    3    0.19102186E-03 -0.78329072E-03  0.58818180E-04  0.68181568E-04 -0.37573378E-07  0.72069238E-07
    3    3    0.38196829E-05  0.84511674E-05  0.58943767E-04 -0.25187790E-04  0.32652610E-06 -0.17988061E-06
    4    3   -0.37376752E-03  0.10716005E-03  0.27564957E-03  0.23426064E-03 -0.46469055E-06  0.55308960E-06
    1    4    0.18855696E-03  0.77881806E-03 -0.96027401E-04 -0.32239347E-04 -0.37606782E-07 -0.72067485E-07
    2    4   -0.11757799E-04  0.15938337E-04  0.70010338E-04 -0.35471988E-05 -0.32301157E-11 -0.10900650E-05
    3    4    0.49306910E-03 -0.50924750E-04 -0.32183161E-03 -0.25624571E-03  0.41850095E-06 -0.74901632E-06
    4    4    0.79927057E-05 -0.59421585E-05  0.19231657E-04  0.62422645E-05  0.28668159E-06  0.11089281E-06

   13   -2    0
    1    1   -0.76203521E-06  0.80802281E-07 -0.45850651E-05  0.13030086E-05 -0.84304376E-07 -0.92077845E-07
    2    1   -0.99245221E-04  0.33522487E-04  0.92384077E-04 -0.17122407E-03  0.25401558E-06  0.15859377E-07
    3    1   -0.18830220E-04 -0.74718018E-04  0.22008551E-03  0.16286542E-03  0.21179691E-06 -0.81385216E-06
    4    1   -0.14293426E-03 -0.78057818E-03 -0.87261149E-04  0.66977842E-04 -0.68073145E-07 -0.94455331E-06
    1    2    0.12551516E-03 -0.29370060E-04 -0.88950012E-04  0.16570221E-03 -0.27114188E-06  0.17161779E-07
    2    2   -0.79479926E-06 -0.89861130E-07  0.69499451E-04 -0.21121597E-05 -0.23447610E-06  0.91884362E-07
    3    2    0.31280863E-03  0.78566859E-03  0.69450415E-04 -0.10362021E-03 -0.17982644E-06  0.99234768E-06
    4    2    0.18319650E-03  0.46587391E-04  0.13143991E-03  0.15430317E-03  0.19930648E-06 -0.93115369E-06
    1    3    0.29704288E-04  0.67307966E-03  0.16563284E-03 -0.14399830E-03 -0.30176146E-06 -0.93891042E-06
    2    3    0.14688952E-03 -0.62866415E-03 -0.44024008E-04 -0.38227585E-04 -0.82840458E-07 -0.27398583E-06
    3    3   -0.75314938E-06 -0.80783069E-07  0.45804477E-05  0.13029924E-05  0.84264921E-07 -0.92105286E-07
    4    3    0.10613951E-03  0.11975244E-04  0.16934566E-03  0.16271138E-03 -0.27129953E-06 -0.17275232E-07
    1    4   -0.17273814E-03  0.64306733E-03  0.35445835E-04  0.73601168E-04 -0.58641223E-08  0.32674304E-06
    2    4   -0.17931003E-03  0.56673292E-03  0.19267352E-03 -0.15450920E-03 -0.14755871E-06 -0.86071915E-06
    3    4   -0.90706724E-04 -0.18551659E-04 -0.16145768E-03 -0.17796968E-03  0.25418892E-06 -0.15780232E-07
    4    4   -0.79259097E-06  0.90221673E-07 -0.69504462E-04 -0.21124547E-05  0.23444085E-06  0.91854246E-07

   14   -9    0
    1    1    0.58848529E-04  0.66646028E-05  0.38516324E-04  0.51870408E-05  0.39191261E-06  0.93380426E-07
    2    1   -0.49727514E-03  0.38053102E-03  0.28190613E-03  0.29229346E-05  0.71708790E-06  0.19201570E-06
    3    1   -0.23965026E-03  0.47583241E-03 -0.71423490E-04 -0.33775471E-03 -0.16773739E-06 -0.13291393E-05
    4    1   -0.28724925E-03  0.31519348E-03 -0.23310763E-04 -0.46826415E-03 -0.42680289E-07  0.64593408E-06
    1    2    0.38186528E-03 -0.35945027E-03 -0.23077809E-03 -0.17205956E-04 -0.69997084E-06 -0.20836637E-06
    2    2    0.55601945E-04 -0.41991176E-05  0.39745393E-04 -0.10698084E-06  0.39460884E-06 -0.83243709E-07
    3    2    0.75342043E-04 -0.36949436E-03 -0.75079192E-04  0.55458552E-03 -0.23264873E-07 -0.65104185E-06
    4    2   -0.15903421E-03  0.41714641E-03 -0.12301784E-03 -0.45657325E-03 -0.10823896E-06 -0.13228104E-05
    1    3   -0.18647045E-03  0.25853398E-03  0.61693380E-04 -0.30824307E-03  0.36577992E-07 -0.98712069E-06
    2    3   -0.40274274E-04  0.10912745E-03  0.38685105E-04 -0.34795525E-03  0.23889804E-07  0.15930804E-05
    3    3   -0.53611395E-04 -0.44206574E-05 -0.39461604E-04 -0.66804085E-05 -0.77803894E-06  0.80561497E-07
    4    3   -0.18016344E-03 -0.37069437E-03  0.54057202E-04  0.18932021E-04 -0.61328050E-07 -0.18499617E-06
    1    4   -0.43305036E-04 -0.42054725E-04 -0.92801321E-04  0.33449380E-03  0.19388224E-07 -0.16525138E-05
    2    4    0.17291925E-03  0.25337151E-03  0.14324164E-03 -0.25435834E-03 -0.71106640E-07 -0.10383029E-05
    3    4    0.28462550E-03  0.37513768E-03 -0.14651297E-04 -0.54671441E-04  0.98056038E-08  0.21754686E-06
    4    4   -0.51808220E-04  0.38403678E-05 -0.42035216E-04  0.81757087E-05 -0.75206905E-06 -0.91155697E-07

   14   -8    0
    1    1    0.30810557E-04  0.11212110E-04  0.17601624E-04 -0.43930327E-05  0.68061038E-06  0.52477280E-07
    2    1   -0.54181949E-03  0.43946689E-03  0.28100069E-03 -0.19264068E-03  0.71574394E-06  0.55902908E-07
    3    1   -0.43923492E-03  0.41390508E-03 -0.15809026E-03 -0.18653578E-03 -0.40293519E-07 -0.14734455E-05
    4    1   -0.17413651E-03  0.25694061E-03 -0.46477132E-04 -0.33810526E-03  0.29993023E-07  0.17104450E-05
    1    2    0.47020449E-03 -0.48055766E-03 -0.30360069E-03  0.18352431E-03 -0.69869967E-06 -0.21815033E-06
    2    2    0.40512956E-04  0.10014015E-04  0.32327273E-04  0.13119190E-05  0.63836103E-06 -0.46673948E-07
    3    2    0.23217678E-03 -0.32465599E-03 -0.71861709E-05  0.38599843E-03  0.39548428E-07 -0.16110022E-05
    4    2   -0.35291841E-03  0.48446296E-03 -0.20589983E-03 -0.29011995E-03 -0.23945929E-06 -0.14176417E-05
    1    3   -0.71989986E-04  0.12493959E-03  0.18802659E-03 -0.13135409E-03  0.28152468E-07 -0.97771241E-06
    2    3    0.21266066E-03 -0.80400154E-04  0.10070228E-03 -0.21249366E-03 -0.12596818E-06  0.19708653E-05
    3    3   -0.13893914E-04  0.10668377E-04 -0.21192248E-04 -0.63350135E-05 -0.97815830E-06  0.54455108E-07
    4    3   -0.23544855E-03 -0.40261159E-03  0.17349716E-03  0.20849728E-03 -0.30962515E-07 -0.21528633E-06
    1    4    0.65044517E-04  0.11670191E-03 -0.75373191E-04  0.21076288E-03 -0.13114583E-06 -0.20232517E-05
    2    4    0.30517016E-04  0.71150716E-04  0.18738245E-03 -0.86012386E-04  0.13830571E-08 -0.95299054E-06
    3    4    0.36446481E-03  0.47091798E-03 -0.22206465E-03 -0.21979527E-03  0.18143602E-07  0.67284372E-07
    4    4   -0.30445419E-04  0.11085787E-04 -0.37033583E-04  0.21380043E-05 -0.95459943E-06 -0.60666003E-07

   14   -7    0
    1    1    0.34304578E-05  0.54010617E-05 -0.40115701E-04 -0.29493992E-05  0.87593760E-06  0.56292711E-07
    2    1   -0.51164694E-03  0.50963719E-03  0.24386602E-03 -0.29600653E-03  0.38008776E-06 -0.66806332E-07
    3    1   -0.64853820E-03  0.20777197E-03 -0.21341638E-03  0.75655522E-04 -0.76476748E-07 -0.15401191E-05
    4    1   -0.10904848E-03  0.26011123E-04 -0.13143136E-03 -0.23346304E-03  0.49236655E-07  0.23711784E-05
    1    2    0.44227960E-03 -0.51878512E-03 -0.27035291E-03  0.30744408E-03 -0.34504486E-06 -0.73118306E-07
    2    2    0.15499730E-04  0.53489916E-05  0.29423764E-04  0.38871747E-05  0.86457260E-06 -0.56449273E-07
    3    2    0.31465613E-03 -0.13636289E-03  0.85725699E-04  0.25101318E-03  0.54190220E-07 -0.23368994E-05
    4    2   -0.30697604E-03  0.30498677E-03 -0.28444839E-03 -0.22303003E-04 -0.32128346E-07 -0.14597863E-05
    1    3    0.84041527E-04 -0.11524253E-03  0.24622114E-03  0.36160748E-04 -0.11942042E-06 -0.93649446E-06
    2    3   -0.40686786E-04 -0.24702451E-03  0.64239369E-04 -0.10491193E-03  0.73238864E-07  0.19946349E-05
    3    3   -0.54994433E-05  0.34805005E-06  0.41711198E-04 -0.76835265E-05 -0.85220617E-06  0.32501092E-07
    4    3   -0.30615941E-03 -0.49453227E-03  0.28934544E-03  0.32988579E-03 -0.36637846E-06 -0.80499572E-07
    1    4   -0.87072566E-04  0.26026507E-03 -0.70640138E-04  0.11144728E-03  0.78493355E-07 -0.19994155E-05
    2    4   -0.62726081E-04 -0.15163025E-03  0.23380673E-03  0.71287575E-04  0.89875802E-07 -0.99421301E-06
    3    4    0.43999708E-03  0.50341732E-03 -0.30898460E-03 -0.32777696E-03  0.35864936E-06 -0.86781376E-07
    4    4   -0.13296840E-04  0.41177890E-05 -0.30617157E-04 -0.19922608E-05 -0.88830643E-06 -0.32717218E-07

   14   -6    0
    1    1   -0.88205081E-05 -0.16229410E-05 -0.57908667E-04 -0.26632973E-05  0.95492201E-06  0.32396620E-07
    2    1   -0.36886697E-03  0.43134077E-03  0.22132949E-03 -0.36469960E-03  0.17605428E-07 -0.22797312E-06
    3    1   -0.43454932E-03 -0.13211459E-03 -0.24939176E-03  0.27772467E-03  0.87998853E-07 -0.14947052E-05
    4    1   -0.36505166E-03 -0.14718903E-03 -0.12866071E-03 -0.12647832E-03 -0.42623412E-07  0.23973758E-05
    1    2    0.33615471E-03 -0.42984497E-03 -0.19582324E-03  0.35458506E-03 -0.31518438E-07  0.54604274E-07
    2    2   -0.19503178E-04  0.16217263E-04 -0.95870025E-05 -0.14103633E-04  0.97780720E-06 -0.38646061E-07
    3    2    0.15582633E-03  0.72689560E-04  0.18698607E-03  0.12584379E-03 -0.47498963E-07 -0.23106585E-05
    4    2   -0.34717541E-03 -0.55348662E-04 -0.27892644E-03  0.21588974E-03  0.20592897E-07 -0.15051859E-05
    1    3   -0.15636451E-03 -0.30017864E-03  0.22971609E-03  0.95642826E-04  0.62924565E-07 -0.99975688E-06
    2    3   -0.27655741E-04 -0.35500403E-03  0.70834204E-04 -0.56292273E-05  0.33539682E-07  0.15857286E-05
    3    3   -0.68281359E-06  0.12169571E-04  0.67849093E-04 -0.17979927E-04 -0.64153832E-06  0.48617213E-07
    4    3   -0.41975737E-03 -0.44773743E-03  0.34526412E-03  0.36237380E-03 -0.69321351E-06  0.53674662E-07
    1    4   -0.10333347E-03  0.40427780E-03 -0.31121038E-04  0.21614855E-04  0.38073674E-07 -0.16597702E-05
    2    4    0.13046209E-03 -0.33694612E-03  0.21247331E-03  0.11367264E-03 -0.28399878E-07 -0.10256371E-05
    3    4    0.47983991E-03  0.43181219E-03 -0.33773814E-03 -0.36621922E-03  0.72114742E-06 -0.22040299E-06
    4    4    0.81348156E-05  0.10926109E-05  0.18917115E-04  0.11881889E-05 -0.67744217E-06 -0.42811907E-07

   14   -5    0
    1    1   -0.98349815E-05 -0.24753420E-05 -0.93740659E-04 -0.83503977E-05  0.73619013E-06 -0.62372182E-07
    2    1   -0.18728952E-03  0.20354971E-03  0.16921132E-03 -0.34904640E-03  0.37276685E-07 -0.26725252E-06
    3    1   -0.24907367E-03 -0.50087464E-03 -0.16703728E-03  0.34398667E-03  0.21978707E-06 -0.14746412E-05
    4    1   -0.22205816E-03 -0.31183039E-03 -0.15946060E-03 -0.64726602E-04  0.73587030E-07  0.17097250E-05
    1    2    0.16213319E-03 -0.21943444E-03 -0.18808745E-03  0.32984294E-03 -0.33919444E-07  0.13529472E-06
    2    2   -0.83209504E-05  0.94358134E-06 -0.38105955E-04  0.80828783E-05  0.79392009E-06  0.51750619E-07
    3    2    0.30158501E-03  0.26661424E-03  0.15996035E-03  0.39631008E-04  0.64122601E-07 -0.16116734E-05
    4    2   -0.20182835E-03 -0.37231316E-03 -0.19698961E-03  0.29945078E-03  0.59971431E-07 -0.14164202E-05
    1    3    0.11856874E-04 -0.33877316E-03  0.11263512E-03  0.18528212E-04  0.10070844E-10 -0.11451873E-05
    2    3    0.19281071E-03 -0.55198064E-03  0.21391044E-04  0.55259995E-04 -0.54851534E-07  0.11414726E-05
    3    3    0.46948601E-05 -0.25511853E-05  0.10187051E-03  0.47229410E-05 -0.38651590E-06 -0.31956805E-07
    4    3   -0.36230598E-03 -0.16986101E-03  0.28715344E-03  0.33345671E-03 -0.71392194E-06  0.11992601E-06
    1    4    0.16038178E-03  0.55308196E-03 -0.26622761E-04 -0.26911667E-04 -0.54857225E-07 -0.11414683E-05
    2    4    0.12258012E-04 -0.51895997E-03  0.11335680E-03  0.40145595E-04  0.94243002E-11 -0.10796455E-05
    3    4    0.46264355E-03  0.19278810E-03 -0.36063856E-03 -0.33367067E-03  0.70303459E-06 -0.28057691E-06
    4    4    0.58784708E-05 -0.60702447E-06  0.36144243E-04 -0.94029730E-05 -0.40001273E-06  0.42110899E-07

   15   -8    0
    1    1    0.53124585E-05  0.69925308E-05  0.61342359E-05  0.80619719E-06  0.80266898E-06  0.14576905E-07
    2    1   -0.26203775E-03  0.31080746E-03  0.12835204E-03 -0.58474587E-04  0.34524373E-06 -0.91622646E-07
    3    1   -0.21415787E-03  0.16529537E-03 -0.98170369E-04 -0.13370056E-03  0.28778332E-08 -0.10575314E-05
    4    1   -0.10843808E-03  0.12773542E-03 -0.54548892E-04 -0.15646684E-03 -0.11871112E-06  0.18807895E-05
    1    2    0.14386272E-03 -0.27374065E-03 -0.38396354E-04  0.50377501E-04 -0.31187383E-06 -0.12667399E-06
    2    2    0.94936969E-05  0.37704184E-05  0.40911307E-05 -0.91517000E-06  0.80415848E-06  0.12684619E-07
    3    2    0.11548245E-04 -0.17079162E-03  0.27341582E-05  0.19557232E-03 -0.12969343E-06 -0.18613510E-05
    4    2   -0.11524057E-03  0.18343809E-03 -0.12007357E-03 -0.18640288E-03  0.48620270E-07 -0.10998127E-05
    1    3   -0.40923857E-03 -0.32770332E-04 -0.12547039E-03 -0.50462900E-04  0.10495304E-06 -0.68110987E-06
    2    3   -0.11858762E-03 -0.13604123E-04 -0.34703061E-04 -0.62496040E-04  0.60593775E-07  0.23598262E-05
    3    3   -0.11793414E-04  0.49684956E-05 -0.51865499E-05 -0.46793157E-05 -0.83509519E-06  0.13659915E-07
    4    3   -0.49095005E-04 -0.32473993E-03  0.10833330E-03  0.12710066E-04 -0.19065340E-06 -0.12716135E-06
    1    4   -0.18436274E-03  0.11738288E-03 -0.61115726E-04  0.91379044E-04  0.60615033E-07 -0.24206128E-05
    2    4    0.21226950E-03  0.35979048E-05  0.72169087E-04 -0.20487154E-04 -0.10497479E-06 -0.71620321E-06
    3    4    0.19091807E-03  0.29321228E-03  0.21349040E-04 -0.53402145E-04  0.21188779E-06 -0.87830849E-07
    4    4   -0.12533030E-04  0.45591552E-05 -0.46600180E-05  0.23031790E-05 -0.84655403E-06 -0.41184398E-07

   15   -7    0
    1    1    0.13119779E-04  0.58536828E-05 -0.37542964E-04 -0.11800280E-04  0.85294269E-06  0.65922727E-07
    2    1   -0.14255690E-03  0.13130657E-03  0.84637116E-04 -0.19937915E-03  0.20094224E-06 -0.97058320E-07
    3    1   -0.17496112E-03 -0.55449040E-04 -0.89110548E-04  0.35165198E-04  0.19277878E-06 -0.10476102E-05
    4    1   -0.11850746E-04  0.40952120E-04 -0.63360022E-04 -0.10052640E-03  0.11129124E-06  0.21888480E-05
    1    2    0.97265684E-04 -0.15824041E-03 -0.15477711E-03  0.19307757E-03 -0.20167120E-06 -0.57760669E-07
    2    2   -0.98818064E-05  0.10205442E-05  0.11760721E-04  0.47804722E-05  0.82874221E-06 -0.93457208E-07
    3    2    0.12211277E-03 -0.31780701E-04  0.50274987E-04  0.10858430E-03  0.11132187E-06 -0.21293989E-05
    4    2   -0.24458333E-03  0.15446039E-04 -0.12262913E-03 -0.44370532E-05 -0.19279562E-06 -0.10132975E-05
    1    3    0.17622332E-04 -0.15926083E-03  0.78257255E-04  0.10736875E-04 -0.50288796E-11 -0.80959965E-06
    2    3    0.11742185E-03 -0.25457395E-03  0.21220530E-04  0.90209741E-05 -0.16152022E-06  0.17653826E-05
    3    3   -0.10814663E-04 -0.17665956E-05  0.35244823E-04  0.26920662E-05 -0.78929276E-06  0.10800827E-06
    4    3   -0.11100721E-03 -0.13407198E-03  0.89120230E-04  0.19732857E-03 -0.33753735E-06 -0.37850623E-07
    1    4    0.70228291E-04  0.25291003E-03  0.29385830E-04 -0.74434619E-06 -0.16145124E-06 -0.17653868E-05
    2    4    0.18991371E-04 -0.24646306E-03  0.69305487E-04  0.10185793E-04 -0.59034026E-11 -0.79818910E-06
    3    4    0.18808849E-03  0.16649567E-03 -0.20476255E-03 -0.20149535E-03  0.31956329E-06 -0.72948602E-07
    4    4    0.12428992E-04  0.72369471E-05 -0.17466836E-04 -0.11952113E-04 -0.81752256E-06 -0.80739285E-07
